
    ---------------------------------------------------------	    ---------------------------------------------------------
          Psi4: An Open-Source Ab Initio Electronic Structure	          Psi4: An Open-Source Ab Initio Electronic Structure
                               Psi4 undefined 			                               Psi4 undefined 

                         Git: Rev {mints_oei} 4aa373e 	      |	                         Git: Rev {master} 45315cb 


    R. M. Parrish, L. A. Burns, D. G. A. Smith, A. C. Simmone	    R. M. Parrish, L. A. Burns, D. G. A. Smith, A. C. Simmone
    A. E. DePrince III, E. G. Hohenstein, U. Bozkaya, A. Yu. 	    A. E. DePrince III, E. G. Hohenstein, U. Bozkaya, A. Yu. 
    R. Di Remigio, R. M. Richard, J. F. Gonthier, A. M. James	    R. Di Remigio, R. M. Richard, J. F. Gonthier, A. M. James
    H. R. McAlexander, A. Kumar, M. Saitow, X. Wang, B. P. Pr	    H. R. McAlexander, A. Kumar, M. Saitow, X. Wang, B. P. Pr
    P. Verma, H. F. Schaefer III, K. Patkowski, R. A. King, E	    P. Verma, H. F. Schaefer III, K. Patkowski, R. A. King, E
    F. A. Evangelista, J. M. Turney, T. D. Crawford, and C. D	    F. A. Evangelista, J. M. Turney, T. D. Crawford, and C. D
    J. Chem. Theory Comput. 13(7) pp 3185--3197 (2017).		    J. Chem. Theory Comput. 13(7) pp 3185--3197 (2017).
    (doi: 10.1021/acs.jctc.7b00174)				    (doi: 10.1021/acs.jctc.7b00174)


                         Additional Contributions by		                         Additional Contributions by
    P. Kraus, H. Kruse, M. H. Lechner, M. C. Schieber, R. A. 	    P. Kraus, H. Kruse, M. H. Lechner, M. C. Schieber, R. A. 
    A. Alenaizan, R. Galvelis, Z. L. Glick, S. Lehtola, and J	    A. Alenaizan, R. Galvelis, Z. L. Glick, S. Lehtola, and J

    ---------------------------------------------------------	    ---------------------------------------------------------


    Psi4 started on: Sunday, 29 December 2019 09:46PM	      |	    Psi4 started on: Monday, 22 April 2019 01:11PM

    Process ID: 38064					      |	    Process ID: 12337
    Host:       CHE-FEVANGE-01I (2)			      |	    Host:       jeffschriber.local
    PSIDATADIR: /Users/fevange/Source/psi4/objdir-Debug/stage |	    PSIDATADIR: /Users/jeffschriber/src/psi4-debug-install/sh
    Memory:     500.0 MiB					    Memory:     500.0 MiB
    Threads:    1						    Threads:    1
    								    
  ==> Input File <==						  ==> Input File <==

-------------------------------------------------------------	-------------------------------------------------------------
import forte                              			import forte                              

# This test reproduces the ASCI energy of C2 reported in the 	# This test reproduces the ASCI energy of C2 reported in the 
#   Tubman, N. M., Lee, J., Takeshita, T. Y., Head-Gordon, M.	#   Tubman, N. M., Lee, J., Takeshita, T. Y., Head-Gordon, M.
#   J. Chem. Phys., 145 (4), 044112. http://doi.org/doi: 10.1	#   J. Chem. Phys., 145 (4), 044112. http://doi.org/doi: 10.1

refscf = -75.34896498316222 					refscf = -75.34896498316222 
refasci = -75.550651284593 					refasci = -75.550651284593 
                                         			                                         
molecule CH2{                            			molecule CH2{                            
0 1								0 1
C								C
C 1 1.27273							C 1 1.27273

}                                        			}                                        
                                         			                                         
set {                                    			set {                                    
  scf_type pk                            			  scf_type pk                            
  #multiplicity 1                         			  #multiplicity 1                         
  basis 6-31g                      				  basis 6-31g                      
  reference rohf						  reference rohf
  e_convergence 10						  e_convergence 10
}                                        			}                                        
                                         			                                         
set forte {                              			set forte {                              
  multiplicity 1						  multiplicity 1
  active_space_solver asci                          		  active_space_solver asci                          
  frozen_docc [0,0,0,0,0,0,0,0]					  frozen_docc [0,0,0,0,0,0,0,0]
  restricted_docc [0,0,0,0,0,0,0,0]				  restricted_docc [0,0,0,0,0,0,0,0]
  active [3,0,1,1,0,3,2,2]					  active [3,0,1,1,0,3,2,2]
  multiplicity 1						  multiplicity 1
  charge 0                               			  charge 0                               
  root_sym 0							  root_sym 0
  nroot 2							  nroot 2
  sci_excited_algorithm average					  sci_excited_algorithm average
  active_ref_type hf						  active_ref_type hf
  dl_maxiter 500						  dl_maxiter 500
  asci_cdet 50							  asci_cdet 50
  asci_tdet 334							  asci_tdet 334
  asci_max_cycle 8   						  asci_max_cycle 8   
  asci_e_convergence 1e-5					  asci_e_convergence 1e-5
  sci_project_out_spin_contaminants true			  sci_project_out_spin_contaminants true
  spin_project_full false					  spin_project_full false
}                                        			}                                        
                                         			                                         
Escf, scf_wfn = energy('scf', return_wfn=True)			Escf, scf_wfn = energy('scf', return_wfn=True)
compare_values(refscf, variable("CURRENT ENERGY"),9, "SCF ene	compare_values(refscf, variable("CURRENT ENERGY"),9, "SCF ene
energy('forte', ref_wfn = scf_wfn) 				energy('forte', ref_wfn = scf_wfn) 
compare_values(refasci,variable("CURRENT ENERGY"),9,"ASCI ENE	compare_values(refasci,variable("CURRENT ENERGY"),9,"ASCI ENE
-------------------------------------------------------------	-------------------------------------------------------------

Scratch directory: /tmp/				      |	*** tstart() called on jeffschriber.local
							      |	*** at Mon Apr 22 13:11:56 2019
*** tstart() called on CHE-FEVANGE-01I (2)		      <
*** at Sun Dec 29 21:46:01 2019				      <

   => Loading Basis Set <=					   => Loading Basis Set <=

    Name: 6-31G							    Name: 6-31G
    Role: ORBITAL						    Role: ORBITAL
    Keyword: BASIS						    Keyword: BASIS
    atoms 1-2 entry C          line    87 file /Users/fevange |	    atoms 1-2 entry C          line    87 file /Users/jeffsch


         ----------------------------------------------------	         ----------------------------------------------------
                                   SCF				                                   SCF
               by Justin Turney, Rob Parrish, Andy Simmonett	               by Justin Turney, Rob Parrish, Andy Simmonett
                          and Daniel G. A. Smith		                          and Daniel G. A. Smith
                             ROHF Reference			                             ROHF Reference
                        1 Threads,    500 MiB Core		                        1 Threads,    500 MiB Core
         ----------------------------------------------------	         ----------------------------------------------------

  ==> Geometry <==						  ==> Geometry <==

    Molecular point group: d2h					    Molecular point group: d2h
    Full point group: D_inf_h					    Full point group: D_inf_h

    Geometry (in Angstrom), charge = 0, multiplicity = 1:	    Geometry (in Angstrom), charge = 0, multiplicity = 1:

       Center              X                  Y              	       Center              X                  Y              
    ------------   -----------------  -----------------  ----	    ------------   -----------------  -----------------  ----
         C            0.000000000000     0.000000000000    -0	         C            0.000000000000     0.000000000000    -0
         C            0.000000000000     0.000000000000     0	         C            0.000000000000     0.000000000000     0

  Running in d2h symmetry.					  Running in d2h symmetry.

  Rotational constants: A = ************  B =      1.73449  C	  Rotational constants: A = ************  B =      1.73449  C
  Rotational constants: A = ************  B =  51998.80782  C	  Rotational constants: A = ************  B =  51998.80782  C
  Nuclear repulsion =   14.968123312972903			  Nuclear repulsion =   14.968123312972903

  Charge       = 0						  Charge       = 0
  Multiplicity = 1						  Multiplicity = 1
  Electrons    = 12						  Electrons    = 12
  Nalpha       = 6						  Nalpha       = 6
  Nbeta        = 6						  Nbeta        = 6

  ==> Algorithm <==						  ==> Algorithm <==

  SCF Algorithm Type is PK.					  SCF Algorithm Type is PK.
  DIIS enabled.							  DIIS enabled.
  MOM disabled.							  MOM disabled.
  Fractional occupation disabled.				  Fractional occupation disabled.
  Guess Type is SAD.						  Guess Type is SAD.
  Energy threshold   = 1.00e-10					  Energy threshold   = 1.00e-10
  Density threshold  = 1.00e-06					  Density threshold  = 1.00e-06
  Integral threshold = 0.00e+00					  Integral threshold = 0.00e+00

  ==> Primary Basis <==						  ==> Primary Basis <==

  Basis Set: 6-31G						  Basis Set: 6-31G
    Blend: 6-31G						    Blend: 6-31G
    Number of shells: 10					    Number of shells: 10
    Number of basis function: 18				    Number of basis function: 18
    Number of Cartesian functions: 18				    Number of Cartesian functions: 18
    Spherical Harmonics?: false					    Spherical Harmonics?: false
    Max angular momentum: 1					    Max angular momentum: 1

  ==> Pre-Iterations <==					  ==> Pre-Iterations <==

   -------------------------------------------------------	   -------------------------------------------------------
    Irrep   Nso     Nmo     Nalpha   Nbeta   Ndocc  Nsocc	    Irrep   Nso     Nmo     Nalpha   Nbeta   Ndocc  Nsocc
   -------------------------------------------------------	   -------------------------------------------------------
     Ag         5       5       0       0       0       0	     Ag         5       5       0       0       0       0
     B1g        0       0       0       0       0       0	     B1g        0       0       0       0       0       0
     B2g        2       2       0       0       0       0	     B2g        2       2       0       0       0       0
     B3g        2       2       0       0       0       0	     B3g        2       2       0       0       0       0
     Au         0       0       0       0       0       0	     Au         0       0       0       0       0       0
     B1u        5       5       0       0       0       0	     B1u        5       5       0       0       0       0
     B2u        2       2       0       0       0       0	     B2u        2       2       0       0       0       0
     B3u        2       2       0       0       0       0	     B3u        2       2       0       0       0       0
   -------------------------------------------------------	   -------------------------------------------------------
    Total      18      18       6       6       6       0	    Total      18      18       6       6       6       0
   -------------------------------------------------------	   -------------------------------------------------------

  ==> Integral Setup <==					  ==> Integral Setup <==

  Using in-core PK algorithm.					  Using in-core PK algorithm.
   Calculation information:					   Calculation information:
      Number of atoms:                   2			      Number of atoms:                   2
      Number of AO shells:              10			      Number of AO shells:              10
      Number of primitives:             28			      Number of primitives:             28
      Number of atomic orbitals:        18			      Number of atomic orbitals:        18
      Number of basis functions:        18			      Number of basis functions:        18

      Integral cutoff                 1.00e-12			      Integral cutoff                 1.00e-12
      Number of threads:                 1			      Number of threads:                 1

  Performing in-core PK						  Performing in-core PK
  Using 29412 doubles for integral storage.			  Using 29412 doubles for integral storage.
  We computed 1540 shell quartets total.			  We computed 1540 shell quartets total.
  Whereas there are 1540 unique shell quartets.			  Whereas there are 1540 unique shell quartets.

  ==> DiskJK: Disk-Based J/K Matrices <==			  ==> DiskJK: Disk-Based J/K Matrices <==

    J tasked:                  Yes				    J tasked:                  Yes
    K tasked:                  Yes				    K tasked:                  Yes
    wK tasked:                  No				    wK tasked:                  No
    Memory [MiB]:              375				    Memory [MiB]:              375
    Schwarz Cutoff:          1E-12				    Schwarz Cutoff:          1E-12

    OpenMP threads:              1				    OpenMP threads:              1

  Minimum eigenvalue in the overlap matrix is 8.1654782430E-0	  Minimum eigenvalue in the overlap matrix is 8.1654782430E-0
    Using symmetric orthogonalization.			      |	  Using Symmetric Orthogonalization.
							      >
  SCF Guess: Superposition of Atomic Densities via on-the-fly	  SCF Guess: Superposition of Atomic Densities via on-the-fly

  ==> Iterations <==						  ==> Iterations <==

                        Total Energy        Delta E     RMS |	                        Total Energy        Delta E     RMS |

   @ROHF iter SAD:   -74.45836509848711   -7.44584e+01   0.00 |	   @ROHF iter SAD:   -74.45836509848716   -7.44584e+01   0.00
   @ROHF iter   1:   -75.32939636648352   -8.71031e-01   1.04 |	   @ROHF iter   1:   -75.32939636648349   -8.71031e-01   1.04
   @ROHF iter   2:   -75.34597940819394   -1.65830e-02   3.95 |	   @ROHF iter   2:   -75.34597940819391   -1.65830e-02   3.95
   @ROHF iter   3:   -75.34884785923138   -2.86845e-03   8.05	   @ROHF iter   3:   -75.34884785923138   -2.86845e-03   8.05
   @ROHF iter   4:   -75.34896369452109   -1.15835e-04   1.00 |	   @ROHF iter   4:   -75.34896369452103   -1.15835e-04   1.00
   @ROHF iter   5:   -75.34896496562533   -1.27110e-06   1.14 |	   @ROHF iter   5:   -75.34896496562529   -1.27110e-06   1.14
   @ROHF iter   6:   -75.34896498309303   -1.74677e-08   6.85 |	   @ROHF iter   6:   -75.34896498309304   -1.74678e-08   6.85
   @ROHF iter   7:   -75.34896498316223   -6.92069e-11   1.29 |	   @ROHF iter   7:   -75.34896498316225   -6.92069e-11   1.29
  Energy and wave function converged.				  Energy and wave function converged.


  ==> Post-Iterations <==					  ==> Post-Iterations <==

    Orbital Energies [Eh]					    Orbital Energies [Eh]
    ---------------------					    ---------------------

    Doubly Occupied:                                         	    Doubly Occupied:                                         

       1Ag   -11.374749     1B1u  -11.372901     2Ag    -1.06	       1Ag   -11.374749     1B1u  -11.372901     2Ag    -1.06
       2B1u   -0.515173     1B2u   -0.445729     1B3u   -0.44	       2B1u   -0.515173     1B2u   -0.445729     1B3u   -0.44

    Singly Occupied:                                         	    Singly Occupied:                                         

    								    

    Virtual:                                                 	    Virtual:                                                 

       3Ag    -0.100631     1B3g    0.159461     1B2g    0.15 |	       3Ag    -0.100631     1B2g    0.159461     1B3g    0.15
       3B1u    0.469746     4Ag     0.669083     2B3u    0.72	       3B1u    0.469746     4Ag     0.669083     2B3u    0.72
       2B2u    0.721913     5Ag     0.774793     2B3g    0.84	       2B2u    0.721913     5Ag     0.774793     2B3g    0.84
       2B2g    0.841965     4B1u    0.964988     5B1u    1.32	       2B2g    0.841965     4B1u    0.964988     5B1u    1.32

    Final Occupation by Irrep:					    Final Occupation by Irrep:
             Ag   B1g   B2g   B3g    Au   B1u   B2u   B3u 	             Ag   B1g   B2g   B3g    Au   B1u   B2u   B3u 
    DOCC [     2,    0,    0,    0,    0,    2,    1,    1 ]	    DOCC [     2,    0,    0,    0,    0,    2,    1,    1 ]
    SOCC [     0,    0,    0,    0,    0,    0,    0,    0 ]	    SOCC [     0,    0,    0,    0,    0,    0,    0,    0 ]

  @ROHF Final Energy:   -75.34896498316223		      |	  @ROHF Final Energy:   -75.34896498316225

   => Energetics <=						   => Energetics <=

    Nuclear Repulsion Energy =             14.968123312972903	    Nuclear Repulsion Energy =             14.968123312972903
    One-Electron Energy =                -130.190936511623931 |	    One-Electron Energy =                -130.190936511623959
    Two-Electron Energy =                  39.873848215488791 |	    Two-Electron Energy =                  39.873848215488806
    Total Energy =                        -75.348964983162233 |	    Total Energy =                        -75.348964983162247

Computation Completed						Computation Completed


Properties will be evaluated at   0.000000,   0.000000,   0.0	Properties will be evaluated at   0.000000,   0.000000,   0.0

Properties computed using the SCF density matrix		Properties computed using the SCF density matrix

  Nuclear Dipole Moment: [e a0]					  Nuclear Dipole Moment: [e a0]
     X:     0.0000      Y:     0.0000      Z:     0.0000	     X:     0.0000      Y:     0.0000      Z:     0.0000

  Electronic Dipole Moment: [e a0]				  Electronic Dipole Moment: [e a0]
     X:     0.0000      Y:     0.0000      Z:     0.0000	     X:     0.0000      Y:     0.0000      Z:     0.0000

  Dipole Moment: [e a0]						  Dipole Moment: [e a0]
     X:     0.0000      Y:     0.0000      Z:     0.0000     	     X:     0.0000      Y:     0.0000      Z:     0.0000     

  Dipole Moment: [D]						  Dipole Moment: [D]
     X:     0.0000      Y:     0.0000      Z:     0.0000     	     X:     0.0000      Y:     0.0000      Z:     0.0000     


*** tstop() called on CHE-FEVANGE-01I (2) at Sun Dec 29 21:46 |	*** tstop() called on jeffschriber.local at Mon Apr 22 13:11:
Module time:							Module time:
	user time   =       0.35 seconds =       0.01 minutes |		user time   =       0.37 seconds =       0.01 minutes
	system time =       0.01 seconds =       0.00 minutes |		system time =       0.02 seconds =       0.00 minutes
	total time  =          1 seconds =       0.02 minutes |		total time  =          0 seconds =       0.00 minutes
Total time:							Total time:
	user time   =       0.35 seconds =       0.01 minutes |		user time   =       0.37 seconds =       0.01 minutes
	system time =       0.01 seconds =       0.00 minutes |		system time =       0.02 seconds =       0.00 minutes
	total time  =          1 seconds =       0.02 minutes |		total time  =          0 seconds =       0.00 minutes
    SCF energy............................................... |		SCF energy...........................................
							      <
Scratch directory: /tmp/				      <
   => Loading Basis Set <=					   => Loading Basis Set <=

    Name: STO-3G						    Name: STO-3G
    Role: ORBITAL						    Role: ORBITAL
    Keyword: MINAO_BASIS					    Keyword: MINAO_BASIS
    atoms 1-2 entry C          line    61 file /Users/fevange |	    atoms 1-2 entry C          line    61 file /Users/jeffsch


  Forte								  Forte
  -----------------------------------------------------------	  -----------------------------------------------------------
  A suite of quantum chemistry methods for strongly correlate	  A suite of quantum chemistry methods for strongly correlate

    git branch: onedet - git commit: 842632a1		      |	    git branch: asci - git commit: 623bb59a

  Developed by:							  Developed by:
    Francesco A. Evangelista, Chenyang Li, Kevin P. Hannon,	    Francesco A. Evangelista, Chenyang Li, Kevin P. Hannon,
    Jeffrey B. Schriber, Tianyuan Zhang, Chenxi Cai,		    Jeffrey B. Schriber, Tianyuan Zhang, Chenxi Cai,
    Nan He, Nicholas Stair, Shuhe Wang, Renke Huang		    Nan He, Nicholas Stair, Shuhe Wang, Renke Huang
  -----------------------------------------------------------	  -----------------------------------------------------------

  Size of Determinant class: 16					  Size of Determinant class: 16
  Read options for space FROZEN_DOCC			      <
  Read options for space RESTRICTED_DOCC		      <
  Read options for space ACTIVE				      <

  ==> MO Space Information <==					  ==> MO Space Information <==

							      >	  Read options for space FROZEN_DOCC
							      >	  Read options for space RESTRICTED_DOCC
							      >	  Read options for space ACTIVE
  -----------------------------------------------------------	  -----------------------------------------------------------
                       Ag   B1g   B2g   B3g    Au   B1u   B2u	                       Ag   B1g   B2g   B3g    Au   B1u   B2u
  -----------------------------------------------------------	  -----------------------------------------------------------
    FROZEN_DOCC         0     0     0     0     0     0     0	    FROZEN_DOCC         0     0     0     0     0     0     0
    RESTRICTED_DOCC     0     0     0     0     0     0     0	    RESTRICTED_DOCC     0     0     0     0     0     0     0
    ACTIVE              3     0     1     1     0     3     2	    ACTIVE              3     0     1     1     0     3     2
    RESTRICTED_UOCC     2     0     1     1     0     2     0	    RESTRICTED_UOCC     2     0     1     1     0     2     0
    FROZEN_UOCC         0     0     0     0     0     0     0	    FROZEN_UOCC         0     0     0     0     0     0     0
    Total               5     0     2     2     0     5     2	    Total               5     0     2     2     0     5     2
  -----------------------------------------------------------	  -----------------------------------------------------------

  ==> Integral Transformation <==				  ==> Integral Transformation <==

  Number of molecular orbitals:                    18		  Number of molecular orbitals:                    18
  Number of correlated molecular orbitals:         18		  Number of correlated molecular orbitals:         18
  Number of frozen occupied orbitals:               0		  Number of frozen occupied orbitals:               0
  Number of frozen unoccupied orbitals:             0		  Number of frozen unoccupied orbitals:             0
  Two-electron integral type:              Conventional		  Two-electron integral type:              Conventional


  Overall Conventional Integrals timings			  Overall Conventional Integrals timings

	Presorting SO-basis two-electron integrals.			Presorting SO-basis two-electron integrals.
	Sorting File: SO Ints (nn|nn) nbuckets = 1			Sorting File: SO Ints (nn|nn) nbuckets = 1
	Transforming the one-electron integrals and construct		Transforming the one-electron integrals and construct
	Starting first half-transformation.				Starting first half-transformation.
	Sorting half-transformed integrals.				Sorting half-transformed integrals.
	First half integral transformation complete.			First half integral transformation complete.
	Starting second half-transformation.				Starting second half-transformation.
	Two-electron integral transformation complete.			Two-electron integral transformation complete.

  Integral transformation done. 0.02009559 s		      |	  Integral transformation done. 0.01765210 s
  Reading the two-electron integrals from disk			  Reading the two-electron integrals from disk
  Size of two-electron integrals:   0.002346 GB			  Size of two-electron integrals:   0.002346 GB
  Timing for freezing core and virtual orbitals:             	  Timing for freezing core and virtual orbitals:             
  Conventional integrals take 0.07931752 s		      |	  Conventional integrals take 0.07325561 s

  ==> Summary of Active Space Solver Input <==			  ==> Summary of Active Space Solver Input <==

    Irrep.  Multi.  Nstates					    Irrep.  Multi.  Nstates
    -------------------------					    -------------------------
      Ag       1        2					      Ag       1        2
    -------------------------					    -------------------------
    Total number of states: 2					    Total number of states: 2
    -------------------------					    -------------------------

  Number of active alpha electrons: 6				  Number of active alpha electrons: 6
  Number of active beta electrons: 6				  Number of active beta electrons: 6
  Maximum reference space size: 1000				  Maximum reference space size: 1000
  |220002202020>						  |220002202020>

-------------------------------------------------------------	-------------------------------------------------------------
               Selected Configuration Interaction Excited Sta	               Selected Configuration Interaction Excited Sta
  written by Jeffrey B. Schriber, Tianyuan Zhang and Francesc	  written by Jeffrey B. Schriber, Tianyuan Zhang and Francesc
-------------------------------------------------------------	-------------------------------------------------------------

  ==> Reference Information <==					  ==> Reference Information <==

  ==> Calculation Information <==				  ==> Calculation Information <==

  -----------------------------------------------------------	  -----------------------------------------------------------
    Multiplicity                             1    		    Multiplicity                             1    
    Symmetry                                 0    		    Symmetry                                 0    
    Number of roots                          2    		    Number of roots                          2    
    Ms                                       0			    Ms                                       0
    Excited Algorithm                        AVERAGE		    Excited Algorithm                        AVERAGE
  -----------------------------------------------------------	  -----------------------------------------------------------
  Using 1 threads						  Using 1 threads
  Computing wavefunction for root 0				  Computing wavefunction for root 0

        -----------------------------------------------------	        -----------------------------------------------------
                                     ASCI			                                     ASCI
          written by Jeffrey B. Schriber and Francesco A. Eva	          written by Jeffrey B. Schriber and Francesco A. Eva
        -----------------------------------------------------	        -----------------------------------------------------

  ==> Reference Information <==					  ==> Reference Information <==

  There are 0 frozen orbitals.					  There are 0 frozen orbitals.
  There are 12 active orbitals.					  There are 12 active orbitals.

  ==> Calculation Information <==				  ==> Calculation Information <==

  -----------------------------------------------------------	  -----------------------------------------------------------
    Multiplicity                             1    		    Multiplicity                             1    
    Symmetry                                 0    		    Symmetry                                 0    
    Number of roots                          2    		    Number of roots                          2    
    CDet                                     50   		    CDet                                     50   
    TDet                                     334  		    TDet                                     334  
    Convergence threshold                    1.00e-05		    Convergence threshold                    1.00e-05
    Ms                                       0			    Ms                                       0
    Diagonalization algorithm                SOLVER		    Diagonalization algorithm                SOLVER
  -----------------------------------------------------------	  -----------------------------------------------------------
  Using 1 threads						  Using 1 threads
  Number of active alpha electrons: 6				  Number of active alpha electrons: 6
  Number of active beta electrons: 6				  Number of active beta electrons: 6
  Maximum reference space size: 1000				  Maximum reference space size: 1000
  |220002202020>						  |220002202020>

  ==> Cycle 0 <==						  ==> Cycle 0 <==

  Initial P space dimension: 1					  Initial P space dimension: 1

  ==> Computing Coupling Lists <==				  ==> Computing Coupling Lists <==
  --------------------------------				  --------------------------------
        α          0.000012 s				      |	        α          0.000999 s
        β          0.000008 s				      |	        β          0.000023 s
        αα         0.000019 s				      |	        αα         0.000047 s
        ββ         0.000016 s				      |	        ββ         0.000029 s
        αβ         0.000037 s				      |	        αβ         0.000075 s
  --------------------------------				  --------------------------------
  Time spent diagonalizing H:   0.000053 s		      |	  Time spent diagonalizing H:   0.000641 s

    P-space  CI Energy Root   0        = -75.348964983165 Eh 	    P-space  CI Energy Root   0        = -75.348964983165 Eh 

  Time spent forming F space:             0.000112	      |	  Time spent forming F space:             0.001352
  Time spent merging thread F spaces:             0.000059    |	  Time spent merging thread F spaces:             0.000161
  psi::Dimension of the Ref + SD space: 252 determinants	  psi::Dimension of the Ref + SD space: 252 determinants
  Time spent building the external space (default): 0.000239  |	  Time spent building the external space (default): 0.002042 

  Time spent building sorting list: 0.000092		      |	  Time spent building sorting list: 0.001549
  Time spent sorting: 0.000028				      |	  Time spent sorting: 0.000047
  Time spent selecting: 0.000023			      |	  Time spent selecting: 0.000148
  psi::Dimension of the P + Q space: 253 determinants		  psi::Dimension of the P + Q space: 253 determinants
  Time spent screening the model space: 0.000173 s	      |	  Time spent screening the model space: 0.002309 s

  ==> Computing Coupling Lists <==				  ==> Computing Coupling Lists <==
  --------------------------------				  --------------------------------
        α          0.001221 s				      |	        α          0.001991 s
        β          0.001213 s				      |	        β          0.002449 s
        αα         0.002432 s				      |	        αα         0.004339 s
        ββ         0.002466 s				      |	        ββ         0.004313 s
        αβ         0.006258 s				      |	        αβ         0.011098 s
  --------------------------------				  --------------------------------

  Davidson-Liu solver algorithm					  Davidson-Liu solver algorithm
  Using SPARSE sigma builder					  Using SPARSE sigma builder
  Initial guess space is incomplete!				  Initial guess space is incomplete!
  Trying to add 4 determinant(s).  4 determinant(s) added.	  Trying to add 4 determinant(s).  4 determinant(s) added.
  Initial guess found 48 solutions with 2S+1 = 1 *		  Initial guess found 48 solutions with 2S+1 = 1 *
  Initial guess found 43 solutions with 2S+1 = 3  		  Initial guess found 43 solutions with 2S+1 = 3  
  Initial guess found 13 solutions with 2S+1 = 5  		  Initial guess found 13 solutions with 2S+1 = 5  
  Adding guess 0 (multiplicity = 1.000000)			  Adding guess 0 (multiplicity = 1.000000)
  Adding guess 1 (multiplicity = 1.000000)			  Adding guess 1 (multiplicity = 1.000000)

  ==> Diagonalizing Hamiltonian <==				  ==> Diagonalizing Hamiltonian <==

  ----------------------------------------			  ----------------------------------------
    Iter.      Avg. Energy       Delta_E			    Iter.      Avg. Energy       Delta_E
  ----------------------------------------			  ----------------------------------------
      1      -90.486833474170  -9.049e+01			      1      -90.486833474170  -9.049e+01
      2      -90.487682661511  -8.492e-04			      2      -90.487682661511  -8.492e-04
      3      -90.487688389617  -5.728e-06			      3      -90.487688389617  -5.728e-06
      4      -90.487689242208  -8.526e-07			      4      -90.487689242208  -8.526e-07
      5      -90.487689497447  -2.552e-07			      5      -90.487689497447  -2.552e-07
      6      -90.487689517823  -2.038e-08			      6      -90.487689517823  -2.038e-08
      7      -90.487689520634  -2.811e-09			      7      -90.487689520634  -2.811e-09
      8      -90.487689521186  -5.522e-10		      |	      8      -90.487689521186  -5.521e-10
      9      -90.487689521341  -1.556e-10		      |	      9      -90.487689521341  -1.557e-10
     10      -90.487689521363  -2.197e-11		      |	     10      -90.487689521363  -2.203e-11
  ----------------------------------------			  ----------------------------------------
  The Davidson-Liu algorithm converged in 11 iterations.	  The Davidson-Liu algorithm converged in 11 iterations.
  Davidson-Liu procedure took  0.009230 s		      |	  Davidson-Liu procedure took  0.050857 s
  Total time spent diagonalizing H:   0.009409 s	      |	  Total time spent diagonalizing H:   0.053222 s

    PQ-space CI Energy Root   0        = -75.519566208390 Eh  |	    PQ-space CI Energy Root   0        = -75.519566208391 Eh 


  Most important contributions to root 0:			  Most important contributions to root 0:
    0  -0.903856 0.816956561           2 |220002202020>		    0  -0.903856 0.816956561           2 |220002202020>
    1   0.270472 0.073155200           3 |222002002020>		    1   0.270472 0.073155200           3 |222002002020>
    2   0.099526 0.009905401           9 |220202202000>	      |	    2   0.099526 0.009905401           8 |220202202000>
    3   0.099526 0.009905401           8 |220022200020>	      |	    3   0.099526 0.009905401           9 |220022200020>
    4  -0.084452 0.007132067           5 |22-0+2+0-020>		    4  -0.084452 0.007132067           5 |22-0+2+0-020>
    5  -0.084452 0.007132067           6 |22+0-2-0+020>	      |	    5  -0.084452 0.007132067           7 |22+0-2-0+020>
    6   0.084452 0.007132067           4 |22-+02+020-0>		    6   0.084452 0.007132067           4 |22-+02+020-0>
    7   0.084452 0.007132067           7 |22+-02-020+0>	      |	    7   0.084452 0.007132067           6 |22+-02-020+0>
    8  -0.079149 0.006264565          21 |22+0-2+0-020>	      |	    8  -0.079149 0.006264565          20 |22-0+2-0+020>
    9  -0.079149 0.006264565          18 |22-0+2-0+020>	      |	    9  -0.079149 0.006264565          21 |22+0-2+0-020>

  Spin state for root 0: S^2 = 0.000000, S = 0.000, singlet 	  Spin state for root 0: S^2 = 0.000000, S = 0.000, singlet 


  Most important contributions to root 1:			  Most important contributions to root 1:
    0  -0.903856 0.816956561           1 |222002200020>		    0  -0.903856 0.816956561           1 |222002200020>
    1   0.270472 0.073155200           2 |220002202020>		    1   0.270472 0.073155200           2 |220002202020>
    2   0.099526 0.009905401           8 |220022200020>	      |	    2   0.099526 0.009905401           7 |22+0-2-0+020>
    3   0.099526 0.009905401           7 |22+-02-020+0>	      |	    3   0.099526 0.009905401           8 |220202202000>
    4  -0.084452 0.007132067           4 |22-+02+020-0>		    4  -0.084452 0.007132067           4 |22-+02+020-0>
    5  -0.084452 0.007132067           5 |22-0+2+0-020>	      |	    5  -0.084452 0.007132067           6 |22+-02-020+0>
    6   0.084452 0.007132067           3 |222002002020>		    6   0.084452 0.007132067           3 |222002002020>
    7   0.084452 0.007132067           6 |22+0-2-0+020>	      |	    7   0.084452 0.007132067           5 |22-0+2+0-020>
    8  -0.079149 0.006264565          20 |22+-02+020-0>	      |	    8  -0.079149 0.006264565          19 |22+-02+020-0>
    9  -0.079149 0.006264565          17 |220++220-0-0>	      |	    9  -0.079149 0.006264565          20 |22-0+2-0+020>

  Spin state for root 1: S^2 = 0.137143, S = 0.156, singlet   |	  Spin state for root 1: S^2 = 0.133008, S = 0.151, singlet 


  ==> Cycle 1 <==						  ==> Cycle 1 <==

  Initial P space dimension: 50					  Initial P space dimension: 50

  ==> Computing Coupling Lists <==				  ==> Computing Coupling Lists <==
  --------------------------------				  --------------------------------
        α          0.000262 s				      |	        α          0.000476 s
        β          0.000256 s				      |	        β          0.000470 s
        αα         0.000524 s				      |	        αα         0.001063 s
        ββ         0.000508 s				      |	        ββ         0.001009 s
        αβ         0.001376 s				      |	        αβ         0.002787 s
  --------------------------------				  --------------------------------
  Time spent diagonalizing H:   0.000734 s		      |	  Time spent diagonalizing H:   0.002007 s

    P-space  CI Energy Root   0        = -75.515653030810 Eh 	    P-space  CI Energy Root   0        = -75.515653030810 Eh 
    P-space  CI Energy Root   1        = -75.382232857296 Eh 	    P-space  CI Energy Root   1        = -75.382232857296 Eh 

  Time spent forming F space:             0.002725	      |	  Time spent forming F space:             0.019395
  Time spent merging thread F spaces:             0.001121    |	  Time spent merging thread F spaces:             0.007001
  psi::Dimension of the Ref + SD space: 6046 determinants	  psi::Dimension of the Ref + SD space: 6046 determinants
  Time spent building the external space (default): 0.004822  |	  Time spent building the external space (default): 0.027002 

  Time spent building sorting list: 0.001698		      |	  Time spent building sorting list: 0.033320
  Time spent sorting: 0.000849				      |	  Time spent sorting: 0.001160
  Time spent selecting: 0.000031			      |	  Time spent selecting: 0.000253
  psi::Dimension of the P + Q space: 334 determinants		  psi::Dimension of the P + Q space: 334 determinants
  Time spent screening the model space: 0.002665 s	      |	  Time spent screening the model space: 0.034856 s

  ==> Computing Coupling Lists <==				  ==> Computing Coupling Lists <==
  --------------------------------				  --------------------------------
        α          0.001374 s				      |	        α          0.002475 s
        β          0.001463 s				      |	        β          0.002489 s
        αα         0.003292 s				      |	        αα         0.005714 s
        ββ         0.003183 s				      |	        ββ         0.006172 s
        αβ         0.008091 s				      |	        αβ         0.015099 s
  --------------------------------				  --------------------------------

  Davidson-Liu solver algorithm					  Davidson-Liu solver algorithm
  Using SPARSE sigma builder					  Using SPARSE sigma builder
  Initial guess space is incomplete!				  Initial guess space is incomplete!
  Trying to add 73 determinant(s).  11 determinant(s) added.	  Trying to add 73 determinant(s).  11 determinant(s) added.
  Found a guess vector with spin not close to integer value (	  Found a guess vector with spin not close to integer value (
  Found a guess vector with spin not close to integer value (	  Found a guess vector with spin not close to integer value (
  Found a guess vector with spin not close to integer value (	  Found a guess vector with spin not close to integer value (
  Found a guess vector with spin not close to integer value (	  Found a guess vector with spin not close to integer value (
  Found a guess vector with spin not close to integer value (	  Found a guess vector with spin not close to integer value (
  Found a guess vector with spin not close to integer value (	  Found a guess vector with spin not close to integer value (
  Found a guess vector with spin not close to integer value (	  Found a guess vector with spin not close to integer value (
  Found a guess vector with spin not close to integer value (	  Found a guess vector with spin not close to integer value (
  Found a guess vector with spin not close to integer value (	  Found a guess vector with spin not close to integer value (
  Found a guess vector with spin not close to integer value (	  Found a guess vector with spin not close to integer value (
  Found a guess vector with spin not close to integer value (	  Found a guess vector with spin not close to integer value (
  Found a guess vector with spin not close to integer value (	  Found a guess vector with spin not close to integer value (
  Found a guess vector with spin not close to integer value (	  Found a guess vector with spin not close to integer value (
  Initial guess found 79 solutions with 2S+1 = 1 *		  Initial guess found 79 solutions with 2S+1 = 1 *
  Initial guess found 95 solutions with 2S+1 = 3  		  Initial guess found 95 solutions with 2S+1 = 3  
  Initial guess found 23 solutions with 2S+1 = 5  		  Initial guess found 23 solutions with 2S+1 = 5  
  Initial guess found 1 solutions with 2S+1 = 7  		  Initial guess found 1 solutions with 2S+1 = 7  
  Adding guess 0 (multiplicity = 1.000000)			  Adding guess 0 (multiplicity = 1.000000)
  Adding guess 1 (multiplicity = 1.000000)			  Adding guess 1 (multiplicity = 1.000000)
  Adding guess 2 (multiplicity = 1.000000)			  Adding guess 2 (multiplicity = 1.000000)
  Adding guess 3 (multiplicity = 1.000000)			  Adding guess 3 (multiplicity = 1.000000)

  ==> Diagonalizing Hamiltonian <==				  ==> Diagonalizing Hamiltonian <==

  ----------------------------------------			  ----------------------------------------
    Iter.      Avg. Energy       Delta_E			    Iter.      Avg. Energy       Delta_E
  ----------------------------------------			  ----------------------------------------
      1      -90.449957659155  -9.045e+01			      1      -90.449957659155  -9.045e+01
      2      -90.455964804670  -6.007e-03		      |	      2      -90.455964804669  -6.007e-03
      3      -90.456100956623  -1.362e-04			      3      -90.456100956623  -1.362e-04
      4      -90.456114099908  -1.314e-05			      4      -90.456114099908  -1.314e-05
      5      -90.456118253518  -4.154e-06			      5      -90.456118253518  -4.154e-06
      6      -90.456118619320  -3.658e-07			      6      -90.456118619320  -3.658e-07
      7      -90.456118685360  -6.604e-08			      7      -90.456118685360  -6.604e-08
      8      -90.456118701151  -1.579e-08			      8      -90.456118701151  -1.579e-08
      9      -90.456118706495  -5.345e-09		      |	      9      -90.456118706496  -5.345e-09
     10      -90.456118707572  -1.076e-09			     10      -90.456118707572  -1.076e-09
     11      -90.456118707925  -3.539e-10		      |	     11      -90.456118707926  -3.539e-10
     12      -90.456118707986  -6.096e-11			     12      -90.456118707986  -6.096e-11
     13      -90.456118708013  -2.672e-11			     13      -90.456118708013  -2.672e-11
  ----------------------------------------			  ----------------------------------------
  The Davidson-Liu algorithm converged in 14 iterations.	  The Davidson-Liu algorithm converged in 14 iterations.
  Davidson-Liu procedure took  0.032090 s		      |	  Davidson-Liu procedure took  0.189679 s
  Total time spent diagonalizing H:   0.032322 s	      |	  Total time spent diagonalizing H:   0.191258 s

    PQ-space CI Energy Root   0        = -75.548838372178 Eh 	    PQ-space CI Energy Root   0        = -75.548838372178 Eh 
    PQ-space CI Energy Root   1        = -75.427152417902 Eh 	    PQ-space CI Energy Root   1        = -75.427152417902 Eh 


  Most important contributions to root 0:			  Most important contributions to root 0:
    0  -0.853021 0.727644042           0 |220002202020>	      |	    0   0.853021 0.727644042           0 |220002202020>
    1   0.334309 0.111762613           1 |222002002020>	      |	    1  -0.334309 0.111762613           1 |222002002020>
    2   0.116278 0.013520480           3 |220202202000>	      |	    2  -0.116278 0.013520480           3 |220202202000>
    3   0.116205 0.013503587           2 |220022200020>	      |	    3  -0.116205 0.013503587           2 |220022200020>
    4  -0.094094 0.008853643           7 |22-0+2+0-020>	      |	    4   0.094094 0.008853643           7 |22+0-2-0+020>
    5  -0.094094 0.008853643           6 |22+0-2-0+020>	      |	    5   0.094094 0.008853643           6 |22-0+2+0-020>
    6   0.094014 0.008838546           4 |22+-02-020+0>	      |	    6  -0.094014 0.008838546           5 |22-+02+020-0>
    7   0.094014 0.008838546           5 |22-+02+020-0>	      |	    7  -0.094014 0.008838546           4 |22+-02-020+0>
    8  -0.093981 0.008832440           8 |22-0+2-0+020>	      |	    8   0.093981 0.008832440           9 |22-0+2-0+020>
    9  -0.093981 0.008832440           9 |22+0-2+0-020>	      |	    9   0.093981 0.008832440           8 |22+0-2+0-020>

  Spin state for root 0: S^2 = 0.000431, S = 0.000, singlet 	  Spin state for root 0: S^2 = 0.000431, S = 0.000, singlet 


  Most important contributions to root 1:			  Most important contributions to root 1:
    0   0.636094 0.404615613          23 |222002202000>	      |	    0  -0.636094 0.404615613          23 |222002202000>
    1   0.621700 0.386510735          22 |222002200020>	      |	    1  -0.621700 0.386510735          22 |222002200020>
    2  -0.332307 0.110428210           1 |222002002020>	      |	    2   0.332307 0.110428210           1 |222002002020>
    3  -0.106476 0.011337238          80 |222022200000>	      |	    3   0.106476 0.011337238          80 |222022200000>
    4  -0.104252 0.010868479          77 |222202200000>	      |	    4   0.104252 0.010868479          77 |222202200000>
    5  -0.080462 0.006474159           0 |220002202020>	      |	    5   0.080462 0.006474159           0 |220002202020>
    6  -0.076780 0.005895146         207 |22++02-020-0>	      |	    6   0.076780 0.005895146         206 |22++02-020-0>
    7  -0.076780 0.005895146         206 |22--02+020+0>	      |	    7   0.076780 0.005895146         207 |22--02+020+0>
    8   0.075992 0.005774810         199 |22+0+2-0-020>	      |	    8  -0.075992 0.005774810         198 |22+0+2-0-020>
    9   0.075992 0.005774810         198 |22-0-2+0+020>	      |	    9  -0.075992 0.005774810         199 |22-0-2+0+020>

  Spin state for root 1: S^2 = 0.000308, S = 0.000, singlet 	  Spin state for root 1: S^2 = 0.000308, S = 0.000, singlet 


  ==> Cycle 2 <==						  ==> Cycle 2 <==

  Initial P space dimension: 50					  Initial P space dimension: 50

  ==> Computing Coupling Lists <==				  ==> Computing Coupling Lists <==
  --------------------------------				  --------------------------------
        α          0.000291 s				      |	        α          0.000413 s
        β          0.000294 s				      |	        β          0.000411 s
        αα         0.001811 s				      |	        αα         0.000920 s
        ββ         0.000455 s				      |	        ββ         0.000929 s
        αβ         0.001295 s				      |	        αβ         0.002421 s
  --------------------------------				  --------------------------------
  Time spent diagonalizing H:   0.000721 s		      |	  Time spent diagonalizing H:   0.002084 s

    P-space  CI Energy Root   0        = -75.531994220420 Eh 	    P-space  CI Energy Root   0        = -75.531994220420 Eh 
    P-space  CI Energy Root   1        = -75.393733637930 Eh 	    P-space  CI Energy Root   1        = -75.393733637930 Eh 

  Time spent forming F space:             0.003041	      |	  Time spent forming F space:             0.021715
  Time spent merging thread F spaces:             0.001270    |	  Time spent merging thread F spaces:             0.008605
  psi::Dimension of the Ref + SD space: 6478 determinants	  psi::Dimension of the Ref + SD space: 6478 determinants
  Time spent building the external space (default): 0.005328  |	  Time spent building the external space (default): 0.030976 

  Time spent building sorting list: 0.001815		      |	  Time spent building sorting list: 0.036782
  Time spent sorting: 0.000830				      |	  Time spent sorting: 0.001236
  Time spent selecting: 0.000024			      |	  Time spent selecting: 0.000257
  psi::Dimension of the P + Q space: 334 determinants		  psi::Dimension of the P + Q space: 334 determinants
  Time spent screening the model space: 0.002729 s	      |	  Time spent screening the model space: 0.038402 s

  ==> Computing Coupling Lists <==				  ==> Computing Coupling Lists <==
  --------------------------------				  --------------------------------
        α          0.001427 s				      |	        α          0.002490 s
        β          0.001421 s				      |	        β          0.002494 s
        αα         0.002973 s				      |	        αα         0.005938 s
        ββ         0.001878 s				      |	        ββ         0.006156 s
        αβ         0.004911 s				      |	        αβ         0.014976 s
  --------------------------------				  --------------------------------

  Davidson-Liu solver algorithm					  Davidson-Liu solver algorithm
  Using SPARSE sigma builder					  Using SPARSE sigma builder
  Initial guess space is incomplete!				  Initial guess space is incomplete!
  Trying to add 80 determinant(s).  4 determinant(s) added.	  Trying to add 80 determinant(s).  4 determinant(s) added.
  Found a guess vector with spin not close to integer value (	  Found a guess vector with spin not close to integer value (
  Found a guess vector with spin not close to integer value (	  Found a guess vector with spin not close to integer value (
  Found a guess vector with spin not close to integer value (	  Found a guess vector with spin not close to integer value (
  Found a guess vector with spin not close to integer value (	  Found a guess vector with spin not close to integer value (
  Found a guess vector with spin not close to integer value (	  Found a guess vector with spin not close to integer value (
  Found a guess vector with spin not close to integer value (	  Found a guess vector with spin not close to integer value (
  Found a guess vector with spin not close to integer value (	  Found a guess vector with spin not close to integer value (
  Found a guess vector with spin not close to integer value (	  Found a guess vector with spin not close to integer value (
  Found a guess vector with spin not close to integer value (	  Found a guess vector with spin not close to integer value (
  Found a guess vector with spin not close to integer value (	  Found a guess vector with spin not close to integer value (
  Found a guess vector with spin not close to integer value (	  Found a guess vector with spin not close to integer value (
  Found a guess vector with spin not close to integer value (	  Found a guess vector with spin not close to integer value (
  Found a guess vector with spin not close to integer value (	  Found a guess vector with spin not close to integer value (
  Initial guess found 78 solutions with 2S+1 = 1 *		  Initial guess found 78 solutions with 2S+1 = 1 *
  Initial guess found 91 solutions with 2S+1 = 3  		  Initial guess found 91 solutions with 2S+1 = 3  
  Initial guess found 21 solutions with 2S+1 = 5  		  Initial guess found 21 solutions with 2S+1 = 5  
  Initial guess found 1 solutions with 2S+1 = 7  		  Initial guess found 1 solutions with 2S+1 = 7  
  Adding guess 0 (multiplicity = 1.000000)			  Adding guess 0 (multiplicity = 1.000000)
  Adding guess 1 (multiplicity = 1.000000)			  Adding guess 1 (multiplicity = 1.000000)
  Adding guess 2 (multiplicity = 1.000000)			  Adding guess 2 (multiplicity = 1.000000)
  Adding guess 3 (multiplicity = 1.000000)			  Adding guess 3 (multiplicity = 1.000000)

  ==> Diagonalizing Hamiltonian <==				  ==> Diagonalizing Hamiltonian <==

  ----------------------------------------			  ----------------------------------------
    Iter.      Avg. Energy       Delta_E			    Iter.      Avg. Energy       Delta_E
  ----------------------------------------			  ----------------------------------------
      1      -90.448942911334  -9.045e+01			      1      -90.448942911334  -9.045e+01
      2      -90.454595162093  -5.652e-03		      |	      2      -90.454595162092  -5.652e-03
      3      -90.454900874021  -3.057e-04			      3      -90.454900874021  -3.057e-04
      4      -90.454945857839  -4.498e-05			      4      -90.454945857839  -4.498e-05
      5      -90.454973996227  -2.814e-05			      5      -90.454973996227  -2.814e-05
      6      -90.455001847840  -2.785e-05			      6      -90.455001847840  -2.785e-05
      7      -90.455039452317  -3.760e-05			      7      -90.455039452317  -3.760e-05
      8      -90.455070506644  -3.105e-05			      8      -90.455070506644  -3.105e-05
      9      -90.455096588912  -2.608e-05			      9      -90.455096588912  -2.608e-05
     10      -90.455103178607  -6.590e-06			     10      -90.455103178607  -6.590e-06
     11      -90.455105661271  -2.483e-06			     11      -90.455105661271  -2.483e-06
     12      -90.455106307695  -6.464e-07			     12      -90.455106307695  -6.464e-07
     13      -90.455106781660  -4.740e-07			     13      -90.455106781660  -4.740e-07
     14      -90.455106921314  -1.397e-07			     14      -90.455106921314  -1.397e-07
     15      -90.455106933430  -1.212e-08			     15      -90.455106933430  -1.212e-08
     16      -90.455106935238  -1.809e-09			     16      -90.455106935238  -1.809e-09
     17      -90.455106935356  -1.175e-10			     17      -90.455106935356  -1.175e-10
     18      -90.455106935753  -3.967e-10			     18      -90.455106935753  -3.967e-10
     19      -90.455106944788  -9.035e-09			     19      -90.455106944788  -9.035e-09
     20      -90.455106944904  -1.154e-10		      |	     20      -90.455106944903  -1.153e-10
     21      -90.455106961869  -1.697e-08		      |	     21      -90.455106961870  -1.697e-08
     22      -90.455106962038  -1.693e-10		      |	     22      -90.455106962039  -1.693e-10
     23      -90.455107060861  -9.882e-08		      |	     23      -90.455107060862  -9.882e-08
     24      -90.455107062281  -1.420e-09		      |	     24      -90.455107062282  -1.420e-09
     25      -90.455107064580  -2.299e-09			     25      -90.455107064580  -2.299e-09
     26      -90.455107064591  -1.116e-11		      |	     26      -90.455107064591  -1.114e-11
  ----------------------------------------			  ----------------------------------------
  The Davidson-Liu algorithm converged in 27 iterations.	  The Davidson-Liu algorithm converged in 27 iterations.
  Davidson-Liu procedure took  0.027183 s		      |	  Davidson-Liu procedure took  0.208919 s
  Total time spent diagonalizing H:   0.027317 s	      |	  Total time spent diagonalizing H:   0.210590 s

    PQ-space CI Energy Root   0        = -75.550598415211 Eh 	    PQ-space CI Energy Root   0        = -75.550598415211 Eh 
    PQ-space CI Energy Root   1        = -75.423369088026 Eh 	    PQ-space CI Energy Root   1        = -75.423369088026 Eh 


  Most important contributions to root 0:			  Most important contributions to root 0:
    0  -0.849018 0.720830909           0 |220002202020>		    0  -0.849018 0.720830909           0 |220002202020>
    1   0.336533 0.113254752           1 |222002002020>		    1   0.336533 0.113254752           1 |222002002020>
    2   0.116965 0.013680841           2 |220022200020>		    2   0.116965 0.013680841           2 |220022200020>
    3   0.116882 0.013661469           3 |220202202000>		    3   0.116882 0.013661469           3 |220202202000>
    4  -0.094889 0.009003864           6 |22+0-2-0+020>	      |	    4  -0.094889 0.009003864           5 |22+0-2-0+020>
    5  -0.094889 0.009003864           5 |22-0+2+0-020>	      |	    5  -0.094889 0.009003864           6 |22-0+2+0-020>
    6   0.094876 0.009001386           7 |22-+02+020-0>	      |	    6   0.094876 0.009001386           4 |22-+02+020-0>
    7   0.094876 0.009001386           4 |22+-02-020+0>	      |	    7   0.094876 0.009001386           7 |22+-02-020+0>
    8  -0.094725 0.008972775          10 |22+0-2+0-020>	      |	    8  -0.094725 0.008972775          11 |22+0-2+0-020>
    9  -0.094725 0.008972775          11 |22-0+2-0+020>	      |	    9  -0.094725 0.008972775          10 |22-0+2-0+020>

  Spin state for root 0: S^2 = 0.000578, S = 0.001, singlet 	  Spin state for root 0: S^2 = 0.000578, S = 0.001, singlet 


  Most important contributions to root 1:			  Most important contributions to root 1:
    0  -0.928938 0.862926682          20 |222002202000>	      |	    0  -0.928938 0.862926680          20 |222002202000>
    1   0.175231 0.030705870           1 |222002002020>		    1   0.175231 0.030705870           1 |222002002020>
    2   0.164118 0.026934586          21 |222002200020>		    2   0.164118 0.026934586          21 |222002200020>
    3   0.149442 0.022332849         110 |222022200000>		    3   0.149442 0.022332849         110 |222022200000>
    4  -0.107332 0.011520224           7 |22-+02+020-0>	      |	    4  -0.107332 0.011520224           7 |22+-02-020+0>
    5  -0.107332 0.011520224           4 |22+-02-020+0>	      |	    5  -0.107332 0.011520224           4 |22-+02+020-0>
    6   0.057906 0.003353092          13 |222202002000>		    6   0.057906 0.003353092          13 |222202002000>
    7  -0.056595 0.003202987          47 |2+2+02-020-0>	      |	    7  -0.056595 0.003202987          47 |2-2-02+020+0>
    8  -0.056595 0.003202987          50 |2-2-02+020+0>	      |	    8  -0.056595 0.003202987          50 |2+2+02-020-0>
    9   0.053194 0.002829589         119 |222022002000>		    9   0.053194 0.002829589         119 |222022002000>

  Spin state for root 1: S^2 = 0.080610, S = 0.087, singlet 	  Spin state for root 1: S^2 = 0.080610, S = 0.087, singlet 


  ==> Cycle 3 <==						  ==> Cycle 3 <==

  Initial P space dimension: 50					  Initial P space dimension: 50

  ==> Computing Coupling Lists <==				  ==> Computing Coupling Lists <==
  --------------------------------				  --------------------------------
        α          0.000142 s				      |	        α          0.000587 s
        β          0.000138 s				      |	        β          0.000509 s
        αα         0.000301 s				      |	        αα         0.000944 s
        ββ         0.000336 s				      |	        ββ         0.000947 s
        αβ         0.000787 s				      |	        αβ         0.002363 s
  --------------------------------				  --------------------------------
  Time spent diagonalizing H:   0.000437 s		      |	  Time spent diagonalizing H:   0.002021 s

    P-space  CI Energy Root   0        = -75.532628630960 Eh 	    P-space  CI Energy Root   0        = -75.532628630960 Eh 
    P-space  CI Energy Root   1        = -75.393392035093 Eh  |	    P-space  CI Energy Root   1        = -75.393392035094 Eh 

  Time spent forming F space:             0.001842	      |	  Time spent forming F space:             0.021485
  Time spent merging thread F spaces:             0.000852    |	  Time spent merging thread F spaces:             0.009088
  psi::Dimension of the Ref + SD space: 6555 determinants	  psi::Dimension of the Ref + SD space: 6555 determinants
  Time spent building the external space (default): 0.003245  |	  Time spent building the external space (default): 0.031262 

  Time spent building sorting list: 0.000997		      |	  Time spent building sorting list: 0.037038
  Time spent sorting: 0.000662				      |	  Time spent sorting: 0.001254
  Time spent selecting: 0.000020			      |	  Time spent selecting: 0.000251
  psi::Dimension of the P + Q space: 334 determinants		  psi::Dimension of the P + Q space: 334 determinants
  Time spent screening the model space: 0.001724 s	      |	  Time spent screening the model space: 0.038668 s

  ==> Computing Coupling Lists <==				  ==> Computing Coupling Lists <==
  --------------------------------				  --------------------------------
        α          0.000847 s				      |	        α          0.002495 s
        β          0.000872 s				      |	        β          0.002708 s
        αα         0.001872 s				      |	        αα         0.006010 s
        ββ         0.001828 s				      |	        ββ         0.005905 s
        αβ         0.005168 s				      |	        αβ         0.015643 s
  --------------------------------				  --------------------------------

  Davidson-Liu solver algorithm					  Davidson-Liu solver algorithm
  Using SPARSE sigma builder					  Using SPARSE sigma builder
  Initial guess space is incomplete!				  Initial guess space is incomplete!
  Trying to add 86 determinant(s).  8 determinant(s) added.   |	  Trying to add 92 determinant(s).  14 determinant(s) added.
  Found a guess vector with spin not close to integer value (	  Found a guess vector with spin not close to integer value (
  Found a guess vector with spin not close to integer value (	  Found a guess vector with spin not close to integer value (
  Found a guess vector with spin not close to integer value (	  Found a guess vector with spin not close to integer value (
  Found a guess vector with spin not close to integer value (	  Found a guess vector with spin not close to integer value (
  Found a guess vector with spin not close to integer value (	  Found a guess vector with spin not close to integer value (
  Found a guess vector with spin not close to integer value (	  Found a guess vector with spin not close to integer value (
  Found a guess vector with spin not close to integer value (	  Found a guess vector with spin not close to integer value (
  Found a guess vector with spin not close to integer value (	  Found a guess vector with spin not close to integer value (
  Found a guess vector with spin not close to integer value (	  Found a guess vector with spin not close to integer value (
  Found a guess vector with spin not close to integer value (	  Found a guess vector with spin not close to integer value (
  Found a guess vector with spin not close to integer value (	  Found a guess vector with spin not close to integer value (
  Found a guess vector with spin not close to integer value (	  Found a guess vector with spin not close to integer value (
  Initial guess found 79 solutions with 2S+1 = 1 *	      |	  Initial guess found 81 solutions with 2S+1 = 1 *
  Initial guess found 94 solutions with 2S+1 = 3  	      |	  Initial guess found 97 solutions with 2S+1 = 3  
  Initial guess found 22 solutions with 2S+1 = 5  	      |	  Initial guess found 23 solutions with 2S+1 = 5  
  Initial guess found 1 solutions with 2S+1 = 7  		  Initial guess found 1 solutions with 2S+1 = 7  
  Adding guess 0 (multiplicity = 1.000000)			  Adding guess 0 (multiplicity = 1.000000)
  Adding guess 1 (multiplicity = 1.000000)			  Adding guess 1 (multiplicity = 1.000000)
  Adding guess 2 (multiplicity = 1.000000)			  Adding guess 2 (multiplicity = 1.000000)
  Adding guess 3 (multiplicity = 1.000000)			  Adding guess 3 (multiplicity = 1.000000)

  ==> Diagonalizing Hamiltonian <==				  ==> Diagonalizing Hamiltonian <==

  ----------------------------------------			  ----------------------------------------
    Iter.      Avg. Energy       Delta_E			    Iter.      Avg. Energy       Delta_E
  ----------------------------------------			  ----------------------------------------
      1      -90.448958472762  -9.045e+01		      |	      1      -90.449179456197  -9.045e+01
      2      -90.454341190216  -5.383e-03		      |	      2      -90.454358845553  -5.179e-03
      3      -90.454623054071  -2.819e-04		      |	      3      -90.454629604483  -2.708e-04
      4      -90.454657964688  -3.491e-05		      |	      4      -90.454662137131  -3.253e-05
      5      -90.454668756219  -1.079e-05		      |	      5      -90.454669332746  -7.196e-06
      6      -90.454669627262  -8.710e-07		      |	      6      -90.454669802142  -4.694e-07
      7      -90.454669775038  -1.478e-07		      |	      7      -90.454669911145  -1.090e-07
      8      -90.454669842754  -6.772e-08		      |	      8      -90.454669921420  -1.027e-08
      9      -90.454669901707  -5.895e-08		      |	      9      -90.454669940944  -1.952e-08
     10      -90.454669902803  -1.096e-09		      |	     10      -90.454669947326  -6.383e-09
     11      -90.454669906013  -3.209e-09		      |	     11      -90.454669989357  -4.203e-08
     12      -90.454669907959  -1.947e-09		      |	     12      -90.454669989422  -6.476e-11
     13      -90.454669916655  -8.696e-09		      |	     13      -90.454669992085  -2.663e-09
     14      -90.454669921640  -4.985e-09		      |	     14      -90.454669992088  -2.771e-12
     15      -90.454669950563  -2.892e-08		      <
     16      -90.454669958678  -8.115e-09		      <
     17      -90.454669966584  -7.906e-09		      <
     18      -90.454669966980  -3.962e-10		      <
     19      -90.454669968454  -1.474e-09		      <
     20      -90.454669968504  -5.005e-11		      <
  ----------------------------------------			  ----------------------------------------
  The Davidson-Liu algorithm converged in 21 iterations.      |	  The Davidson-Liu algorithm converged in 15 iterations.
  Davidson-Liu procedure took  0.022905 s		      |	  Davidson-Liu procedure took  0.194871 s
  Total time spent diagonalizing H:   0.023041 s	      |	  Total time spent diagonalizing H:   0.196604 s

    PQ-space CI Energy Root   0        = -75.550651388773 Eh  |	    PQ-space CI Energy Root   0        = -75.550651284593 Eh 
    PQ-space CI Energy Root   1        = -75.422441922289 Eh  |	    PQ-space CI Energy Root   1        = -75.422442073637 Eh 


  Most important contributions to root 0:			  Most important contributions to root 0:
    0  -0.848857 0.720558362           0 |220002202020>	      |	    0  -0.848852 0.720550564           0 |220002202020>
    1   0.336686 0.113357332           1 |222002002020>	      |	    1   0.336703 0.113369043           1 |222002002020>
    2   0.116986 0.013685808           3 |220202202000>	      |	    2   0.116979 0.013684048           2 |220022200020>
    3   0.116973 0.013682789           2 |220022200020>	      |	    3   0.116979 0.013684048           3 |220202202000>
    4   0.094910 0.009007886           9 |22-+02-020+0>	      |	    4  -0.094918 0.009009500          11 |22+0-2+0-020>
    5   0.094910 0.009007886           8 |22+-02+020-0>	      |	    5  -0.094918 0.009009500           8 |22-0+2-0+020>
    6  -0.094899 0.009005891          11 |22-0+2-0+020>	      |	    6   0.094918 0.009009500           9 |22-+02-020+0>
    7  -0.094899 0.009005891          10 |22+0-2+0-020>	      |	    7   0.094918 0.009009500          10 |22+-02+020-0>
    8  -0.094762 0.008979743           5 |22+0-2-0+020>	      |	    8   0.094742 0.008976083           5 |22-+02+020-0>
    9  -0.094762 0.008979743           4 |22-0+2+0-020>	      |	    9   0.094742 0.008976083           7 |22+-02-020+0>

  Spin state for root 0: S^2 = 0.000674, S = 0.001, singlet 	  Spin state for root 0: S^2 = 0.000674, S = 0.001, singlet 


  Most important contributions to root 1:			  Most important contributions to root 1:
    0   0.684336 0.468315705          21 |222002200020>	      |	    0   0.683471 0.467132986          20 |222002200020>
    1  -0.682593 0.465933687          20 |222002202000>	      |	    1  -0.683471 0.467132986          21 |222002202000>
    2  -0.105722 0.011177189          87 |222202200000>	      |	    2  -0.105570 0.011144977          86 |222202200000>
    3   0.105426 0.011114689          86 |222022200000>	      |	    3   0.105570 0.011144977          87 |222022200000>
    4  -0.064491 0.004159142           4 |22-0+2+0-020>	      |	    4  -0.064332 0.004138639           6 |22-0+2+0-020>
    5  -0.064491 0.004159142           5 |22+0-2-0+020>	      |	    5  -0.064332 0.004138639           4 |22+0-2-0+020>
    6  -0.064224 0.004124695           7 |22-+02+020-0>	      |	    6  -0.064332 0.004138639           5 |22-+02+020-0>
    7  -0.064224 0.004124695           6 |22+-02-020+0>	      |	    7  -0.064332 0.004138639           7 |22+-02-020+0>
    8  -0.062204 0.003869321          12 |222022000020>	      |	    8  -0.062141 0.003861496          12 |222022000020>
    9   0.062149 0.003862441          13 |222202002000>	      |	    9   0.062141 0.003861496          13 |222202002000>

  Spin state for root 1: S^2 = 0.042573, S = 0.044, singlet   |	  Spin state for root 1: S^2 = 0.042689, S = 0.045, singlet 


  ==> Cycle 4 <==						  ==> Cycle 4 <==

  Initial P space dimension: 50					  Initial P space dimension: 50

  ==> Computing Coupling Lists <==				  ==> Computing Coupling Lists <==
  --------------------------------				  --------------------------------
        α          0.000148 s				      |	        α          0.000415 s
        β          0.000143 s				      |	        β          0.000410 s
        αα         0.000341 s				      |	        αα         0.000926 s
        ββ         0.000286 s				      |	        ββ         0.000925 s
        αβ         0.000784 s				      |	        αβ         0.002471 s
  --------------------------------				  --------------------------------
  Time spent diagonalizing H:   0.000422 s		      |	  Time spent diagonalizing H:   0.001986 s

    P-space  CI Energy Root   0        = -75.532628630960 Eh 	    P-space  CI Energy Root   0        = -75.532628630960 Eh 
    P-space  CI Energy Root   1        = -75.393392035093 Eh 	    P-space  CI Energy Root   1        = -75.393392035093 Eh 

  Time spent forming F space:             0.002307	      |	  Time spent forming F space:             0.022195
  Time spent merging thread F spaces:             0.000914    |	  Time spent merging thread F spaces:             0.008943
  psi::Dimension of the Ref + SD space: 6555 determinants	  psi::Dimension of the Ref + SD space: 6555 determinants
  Time spent building the external space (default): 0.003762  |	  Time spent building the external space (default): 0.031845 

  Time spent building sorting list: 0.001035		      |	  Time spent building sorting list: 0.036896
  Time spent sorting: 0.000653				      |	  Time spent sorting: 0.001263
  Time spent selecting: 0.000020			      |	  Time spent selecting: 0.000264
  psi::Dimension of the P + Q space: 334 determinants		  psi::Dimension of the P + Q space: 334 determinants
  Time spent screening the model space: 0.001750 s	      |	  Time spent screening the model space: 0.038548 s

  ==> Computing Coupling Lists <==				  ==> Computing Coupling Lists <==
  --------------------------------				  --------------------------------
        α          0.000860 s				      |	        α          0.002845 s
        β          0.000867 s				      |	        β          0.002593 s
        αα         0.001873 s				      |	        αα         0.006225 s
        ββ         0.001847 s				      |	        ββ         0.005864 s
        αβ         0.004905 s				      |	        αβ         0.015193 s
  --------------------------------				  --------------------------------

  Davidson-Liu solver algorithm					  Davidson-Liu solver algorithm
  Using SPARSE sigma builder					  Using SPARSE sigma builder
  Initial guess space is incomplete!				  Initial guess space is incomplete!
  Trying to add 86 determinant(s).  8 determinant(s) added.   |	  Trying to add 92 determinant(s).  14 determinant(s) added.
  Found a guess vector with spin not close to integer value (	  Found a guess vector with spin not close to integer value (
  Found a guess vector with spin not close to integer value (	  Found a guess vector with spin not close to integer value (
  Found a guess vector with spin not close to integer value (	  Found a guess vector with spin not close to integer value (
  Found a guess vector with spin not close to integer value (	  Found a guess vector with spin not close to integer value (
  Found a guess vector with spin not close to integer value (	  Found a guess vector with spin not close to integer value (
  Found a guess vector with spin not close to integer value (	  Found a guess vector with spin not close to integer value (
  Found a guess vector with spin not close to integer value (	  Found a guess vector with spin not close to integer value (
  Found a guess vector with spin not close to integer value (	  Found a guess vector with spin not close to integer value (
  Found a guess vector with spin not close to integer value (	  Found a guess vector with spin not close to integer value (
  Found a guess vector with spin not close to integer value (	  Found a guess vector with spin not close to integer value (
  Found a guess vector with spin not close to integer value (	  Found a guess vector with spin not close to integer value (
  Found a guess vector with spin not close to integer value (	  Found a guess vector with spin not close to integer value (
  Initial guess found 79 solutions with 2S+1 = 1 *	      |	  Initial guess found 81 solutions with 2S+1 = 1 *
  Initial guess found 94 solutions with 2S+1 = 3  	      |	  Initial guess found 97 solutions with 2S+1 = 3  
  Initial guess found 22 solutions with 2S+1 = 5  	      |	  Initial guess found 23 solutions with 2S+1 = 5  
  Initial guess found 1 solutions with 2S+1 = 7  		  Initial guess found 1 solutions with 2S+1 = 7  
  Adding guess 0 (multiplicity = 1.000000)			  Adding guess 0 (multiplicity = 1.000000)
  Adding guess 1 (multiplicity = 1.000000)			  Adding guess 1 (multiplicity = 1.000000)
  Adding guess 2 (multiplicity = 1.000000)			  Adding guess 2 (multiplicity = 1.000000)
  Adding guess 3 (multiplicity = 1.000000)			  Adding guess 3 (multiplicity = 1.000000)

  ==> Diagonalizing Hamiltonian <==				  ==> Diagonalizing Hamiltonian <==

  ----------------------------------------			  ----------------------------------------
    Iter.      Avg. Energy       Delta_E			    Iter.      Avg. Energy       Delta_E
  ----------------------------------------			  ----------------------------------------
      1      -90.448958472762  -9.045e+01		      |	      1      -90.449179456197  -9.045e+01
      2      -90.454341190216  -5.383e-03		      |	      2      -90.454358845553  -5.179e-03
      3      -90.454623054071  -2.819e-04		      |	      3      -90.454629604483  -2.708e-04
      4      -90.454657964688  -3.491e-05		      |	      4      -90.454662137131  -3.253e-05
      5      -90.454668756219  -1.079e-05		      |	      5      -90.454669332746  -7.196e-06
      6      -90.454669627262  -8.710e-07		      |	      6      -90.454669802142  -4.694e-07
      7      -90.454669775038  -1.478e-07		      |	      7      -90.454669911145  -1.090e-07
      8      -90.454669842754  -6.772e-08		      |	      8      -90.454669921420  -1.027e-08
      9      -90.454669901707  -5.895e-08		      |	      9      -90.454669940944  -1.952e-08
     10      -90.454669902803  -1.096e-09		      |	     10      -90.454669947326  -6.383e-09
     11      -90.454669906013  -3.209e-09		      |	     11      -90.454669989357  -4.203e-08
     12      -90.454669907959  -1.947e-09		      |	     12      -90.454669989422  -6.480e-11
     13      -90.454669916655  -8.696e-09		      |	     13      -90.454669992085  -2.663e-09
     14      -90.454669921640  -4.985e-09		      |	     14      -90.454669992088  -2.842e-12
     15      -90.454669950563  -2.892e-08		      <
     16      -90.454669958678  -8.115e-09		      <
     17      -90.454669966584  -7.906e-09		      <
     18      -90.454669966980  -3.962e-10		      <
     19      -90.454669968454  -1.474e-09		      <
     20      -90.454669968504  -5.002e-11		      <
  ----------------------------------------			  ----------------------------------------
  The Davidson-Liu algorithm converged in 21 iterations.      |	  The Davidson-Liu algorithm converged in 15 iterations.
  Davidson-Liu procedure took  0.022973 s		      |	  Davidson-Liu procedure took  0.198803 s
  Total time spent diagonalizing H:   0.023108 s	      |	  Total time spent diagonalizing H:   0.200410 s

    PQ-space CI Energy Root   0        = -75.550651388773 Eh  |	    PQ-space CI Energy Root   0        = -75.550651284593 Eh 
    PQ-space CI Energy Root   1        = -75.422441922289 Eh  |	    PQ-space CI Energy Root   1        = -75.422442073637 Eh 


  Most important contributions to root 0:			  Most important contributions to root 0:
    0  -0.848857 0.720558362           0 |220002202020>	      |	    0  -0.848852 0.720550564           0 |220002202020>
    1   0.336686 0.113357332           1 |222002002020>	      |	    1   0.336703 0.113369043           1 |222002002020>
    2   0.116986 0.013685808           3 |220202202000>	      |	    2   0.116979 0.013684048           2 |220022200020>
    3   0.116973 0.013682789           2 |220022200020>	      |	    3   0.116979 0.013684048           3 |220202202000>
    4   0.094910 0.009007886           8 |22-+02-020+0>	      |	    4  -0.094918 0.009009500           9 |22+0-2+0-020>
    5   0.094910 0.009007886          10 |22+-02+020-0>	      |	    5  -0.094918 0.009009500           8 |22-0+2-0+020>
    6  -0.094899 0.009005891          11 |22+0-2+0-020>	      |	    6   0.094918 0.009009500          10 |22-+02-020+0>
    7  -0.094899 0.009005891           9 |22-0+2-0+020>	      |	    7   0.094918 0.009009500          11 |22+-02+020-0>
    8  -0.094762 0.008979743           6 |22+0-2-0+020>	      |	    8   0.094742 0.008976083           5 |22-+02+020-0>
    9  -0.094762 0.008979743           4 |22-0+2+0-020>	      |	    9   0.094742 0.008976083           6 |22+-02-020+0>

  Spin state for root 0: S^2 = 0.000674, S = 0.001, singlet 	  Spin state for root 0: S^2 = 0.000674, S = 0.001, singlet 


  Most important contributions to root 1:			  Most important contributions to root 1:
    0   0.684336 0.468315705          20 |222002200020>	      |	    0   0.683471 0.467132986          21 |222002202000>
    1  -0.682593 0.465933687          21 |222002202000>	      |	    1  -0.683471 0.467132986          20 |222002200020>
    2  -0.105722 0.011177189          86 |222202200000>	      |	    2   0.105570 0.011144977          86 |222202200000>
    3   0.105426 0.011114689          87 |222022200000>	      |	    3  -0.105570 0.011144977          87 |222022200000>
    4  -0.064491 0.004159142           4 |22-0+2+0-020>	      |	    4   0.064332 0.004138639           6 |22+-02-020+0>
    5  -0.064491 0.004159142           6 |22+0-2-0+020>	      |	    5   0.064332 0.004138639           5 |22-+02+020-0>
    6  -0.064224 0.004124695           7 |22-+02+020-0>	      |	    6   0.064332 0.004138639           7 |22-0+2+0-020>
    7  -0.064224 0.004124695           5 |22+-02-020+0>	      |	    7   0.064332 0.004138639           4 |22+0-2-0+020>
    8  -0.062204 0.003869321          13 |222022000020>	      |	    8   0.062141 0.003861496          13 |222022000020>
    9   0.062149 0.003862441          12 |222202002000>	      |	    9  -0.062141 0.003861496          12 |222202002000>

  Spin state for root 1: S^2 = 0.042573, S = 0.044, singlet   |	  Spin state for root 1: S^2 = 0.042689, S = 0.045, singlet 


  ==> Excited state solver summary <==				  ==> Excited state solver summary <==

  Iterations required:                         4		  Iterations required:                         4
  Dimension of optimized determinant space:    334		  Dimension of optimized determinant space:    334

  * Selected-CI Energy Root   0        = -75.550651388773 Eh  |	  * Selected-CI Energy Root   0        = -75.550651284593 Eh 
  * Selected-CI Energy Root   0 + EPT2 = -75.550651388773 Eh  |	  * Selected-CI Energy Root   0 + EPT2 = -75.550651284593 Eh 
  * Selected-CI Energy Root   1        = -75.422441922289 Eh  |	  * Selected-CI Energy Root   1        = -75.422442073637 Eh 
  * Selected-CI Energy Root   1 + EPT2 = -75.422441922289 Eh  |	  * Selected-CI Energy Root   1 + EPT2 = -75.422442073637 Eh 

  ==> Wavefunction Information <==				  ==> Wavefunction Information <==

  Most important contributions to root   0:			  Most important contributions to root   0:
    0  -0.848857 0.720558362           0 |220002202020>	      |	    0  -0.848852 0.720550564           0 |220002202020>
    1   0.336686 0.113357332           1 |222002002020>	      |	    1   0.336703 0.113369043           1 |222002002020>
    2   0.116986 0.013685808           3 |220202202000>	      |	    2   0.116979 0.013684048           2 |220022200020>
    3   0.116973 0.013682789           2 |220022200020>	      |	    3   0.116979 0.013684048           3 |220202202000>
    4   0.094910 0.009007886           8 |22-+02-020+0>	      |	    4  -0.094918 0.009009500           9 |22+0-2+0-020>
    5   0.094910 0.009007886          10 |22+-02+020-0>	      |	    5  -0.094918 0.009009500           8 |22-0+2-0+020>
    6  -0.094899 0.009005891          11 |22+0-2+0-020>	      |	    6   0.094918 0.009009500          10 |22-+02-020+0>
    7  -0.094899 0.009005891           9 |22-0+2-0+020>	      |	    7   0.094918 0.009009500          11 |22+-02+020-0>
    8  -0.094762 0.008979743           6 |22+0-2-0+020>	      |	    8   0.094742 0.008976083           5 |22-+02+020-0>
    9  -0.094762 0.008979743           4 |22-0+2+0-020>	      |	    9   0.094742 0.008976083           6 |22+-02-020+0>

  Spin state for root 0: S^2 = 0.000674, S = 0.001, singlet	  Spin state for root 0: S^2 = 0.000674, S = 0.001, singlet

  Most important contributions to root   1:			  Most important contributions to root   1:
    0   0.684336 0.468315705          20 |222002200020>	      |	    0   0.683471 0.467132986          21 |222002202000>
    1  -0.682593 0.465933687          21 |222002202000>	      |	    1  -0.683471 0.467132986          20 |222002200020>
    2  -0.105722 0.011177189          86 |222202200000>	      |	    2   0.105570 0.011144977          86 |222202200000>
    3   0.105426 0.011114689          87 |222022200000>	      |	    3  -0.105570 0.011144977          87 |222022200000>
    4  -0.064491 0.004159142           4 |22-0+2+0-020>	      |	    4   0.064332 0.004138639           6 |22+-02-020+0>
    5  -0.064491 0.004159142           6 |22+0-2-0+020>	      |	    5   0.064332 0.004138639           5 |22-+02+020-0>
    6  -0.064224 0.004124695           7 |22-+02+020-0>	      |	    6   0.064332 0.004138639           7 |22-0+2+0-020>
    7  -0.064224 0.004124695           5 |22+-02-020+0>	      |	    7   0.064332 0.004138639           4 |22+0-2-0+020>
    8  -0.062204 0.003869321          13 |222022000020>	      |	    8   0.062141 0.003861496          13 |222022000020>
    9   0.062149 0.003862441          12 |222202002000>	      |	    9  -0.062141 0.003861496          12 |222202002000>

  Spin state for root 1: S^2 = 0.042573, S = 0.044, singlet   |	  Spin state for root 1: S^2 = 0.042689, S = 0.045, singlet

  Saving information for root: 0				  Saving information for root: 0

  ==> Energy Summary <==					  ==> Energy Summary <==

    Multi.  Irrep.  No.               Energy			    Multi.  Irrep.  No.               Energy
    -----------------------------------------			    -----------------------------------------
       1      Ag     0       -75.550651388773		      |	       1      Ag     0       -75.550651284593
       1      Ag     1       -75.422441922289		      |	       1      Ag     1       -75.422442073637
    -----------------------------------------		      |	    -----------------------------------------	ASCI ENERGY..
							      <
  Time to prepare integrals: 0.08498620986938477 seconds      <
  Time to run job          : 0.24384784698486328 seconds      <
  Total                    : 0.24384784698486328 seconds    A <
Traceback (most recent call last):			      <
  File "/Users/fevange/Source/psi4/objdir-Debug/stage/bin/psi <
    exec(content)					      <
  File "<string>", line 79, in <module>			      <
  File "/Users/fevange/Source/psi4/objdir-Debug/stage/lib/psi <
    return qcel.testing.compare_values(expected, computed, ** <
  File "/Users/fevange/anaconda3/lib/python3.7/site-packages/ <
    return return_handler(allclose, label, message, return_me <
  File "/Users/fevange/Source/psi4/objdir-Debug/stage/lib/psi <
    raise TestComparisonError(message)			      <
							      <
psi4.driver.p4util.exceptions.TestComparisonError: 	ASCI  <
							      <
							      <
Printing out the relevant lines from the Psithon --> Python p <
                                            		      <
                                             		      <
    Escf, scf_wfn = energy('scf', return_wfn=True)	      <
    compare_values(refscf, variable("CURRENT ENERGY"),9, "SCF <
    energy('forte', ref_wfn = scf_wfn) 			      <
--> compare_values(refasci,variable("CURRENT ENERGY"),9,"ASCI <

    Psi4 stopped on: Sunday, 29 December 2019 09:46PM	      |	    Psi4 stopped on: Monday, 22 April 2019 01:11PM
    Psi4 wall time for execution: 0:00:00.79		      |	    Psi4 wall time for execution: 0:00:02.08

*** Psi4 encountered an error. Buy a developer more coffee!   |	*** Psi4 exiting successfully. Buy a developer a beer!
*** Resources and help at github.com/psi4/psi4.		      <
