
    -----------------------------------------------------------------------
          Psi4: An Open-Source Ab Initio Electronic Structure Package
                               Psi4 undefined 

                         Git: Rev {master} e512d40 


    R. M. Parrish, L. A. Burns, D. G. A. Smith, A. C. Simmonett,
    A. E. DePrince III, E. G. Hohenstein, U. Bozkaya, A. Yu. Sokolov,
    R. Di Remigio, R. M. Richard, J. F. Gonthier, A. M. James,
    H. R. McAlexander, A. Kumar, M. Saitow, X. Wang, B. P. Pritchard,
    P. Verma, H. F. Schaefer III, K. Patkowski, R. A. King, E. F. Valeev,
    F. A. Evangelista, J. M. Turney, T. D. Crawford, and C. D. Sherrill,
    J. Chem. Theory Comput. 13(7) pp 3185--3197 (2017).
    (doi: 10.1021/acs.jctc.7b00174)


                         Additional Contributions by
    P. Kraus, H. Kruse, M. H. Lechner, M. C. Schieber, R. A. Shaw,
    A. Alenaizan, R. Galvelis, Z. L. Glick, S. Lehtola, and J. P. Misiewicz

    -----------------------------------------------------------------------


    Psi4 started on: Wednesday, 31 July 2019 04:17PM

    Process ID: 44139
    Host:       CHE-FEVANGE-01I (2)
    PSIDATADIR: /Users/fevange/Source/psi4/objdir-Debug/stage/share/psi4
    Memory:     500.0 MiB
    Threads:    1
    
  ==> Input File <==

--------------------------------------------------------------------------
import forte                              

# This test reproduces the ASCI energy of C2 reported in the Table 2 of the following paper:
#   Tubman, N. M., Lee, J., Takeshita, T. Y., Head-Gordon, M., & Whaley, K. B. (2016). 
#   J. Chem. Phys., 145 (4), 044112. http://doi.org/doi: 10.1063/1.4955109

refscf = -75.34896498316222 
refasci = -75.550651284593 
                                         
molecule CH2{                            
0 1
C
C 1 1.27273

}                                        
                                         
set {                                    
  scf_type pk                            
  #multiplicity 1                         
  basis 6-31g                      
  reference rohf
  e_convergence 10
}                                        
                                         
set forte {                              
  multiplicity 1
  active_space_solver asci                          
  frozen_docc [0,0,0,0,0,0,0,0]
  restricted_docc [0,0,0,0,0,0,0,0]
  active [3,0,1,1,0,3,2,2]
  multiplicity 1
  charge 0                               
  root_sym 0
  nroot 2
  sci_excited_algorithm average
  active_ref_type hf
  dl_maxiter 500
  asci_cdet 50
  asci_tdet 334
  asci_max_cycle 8   
  asci_e_convergence 1e-5
  sci_project_out_spin_contaminants true
  spin_project_full false
}                                        
                                         
Escf, scf_wfn = energy('scf', return_wfn=True)
compare_values(refscf, variable("CURRENT ENERGY"),9, "SCF energy")
energy('forte', ref_wfn = scf_wfn) 
compare_values(refasci,variable("CURRENT ENERGY"),9,"ASCI ENERGY")
--------------------------------------------------------------------------

*** tstart() called on CHE-FEVANGE-01I (2)
*** at Wed Jul 31 16:17:26 2019

   => Loading Basis Set <=

    Name: 6-31G
    Role: ORBITAL
    Keyword: BASIS
    atoms 1-2 entry C          line    87 file /Users/fevange/Source/psi4/objdir-Debug/stage/share/psi4/basis/6-31g.gbs 


         ---------------------------------------------------------
                                   SCF
               by Justin Turney, Rob Parrish, Andy Simmonett
                          and Daniel G. A. Smith
                             ROHF Reference
                        1 Threads,    500 MiB Core
         ---------------------------------------------------------

  ==> Geometry <==

    Molecular point group: d2h
    Full point group: D_inf_h

    Geometry (in Angstrom), charge = 0, multiplicity = 1:

       Center              X                  Y                   Z               Mass       
    ------------   -----------------  -----------------  -----------------  -----------------
         C            0.000000000000     0.000000000000    -0.636365000000    12.000000000000
         C            0.000000000000     0.000000000000     0.636365000000    12.000000000000

  Running in d2h symmetry.

  Rotational constants: A = ************  B =      1.73449  C =      1.73449 [cm^-1]
  Rotational constants: A = ************  B =  51998.80782  C =  51998.80782 [MHz]
  Nuclear repulsion =   14.968123312972903

  Charge       = 0
  Multiplicity = 1
  Electrons    = 12
  Nalpha       = 6
  Nbeta        = 6

  ==> Algorithm <==

  SCF Algorithm Type is PK.
  DIIS enabled.
  MOM disabled.
  Fractional occupation disabled.
  Guess Type is SAD.
  Energy threshold   = 1.00e-10
  Density threshold  = 1.00e-06
  Integral threshold = 0.00e+00

  ==> Primary Basis <==

  Basis Set: 6-31G
    Blend: 6-31G
    Number of shells: 10
    Number of basis function: 18
    Number of Cartesian functions: 18
    Spherical Harmonics?: false
    Max angular momentum: 1

  ==> Pre-Iterations <==

   -------------------------------------------------------
    Irrep   Nso     Nmo     Nalpha   Nbeta   Ndocc  Nsocc
   -------------------------------------------------------
     Ag         5       5       0       0       0       0
     B1g        0       0       0       0       0       0
     B2g        2       2       0       0       0       0
     B3g        2       2       0       0       0       0
     Au         0       0       0       0       0       0
     B1u        5       5       0       0       0       0
     B2u        2       2       0       0       0       0
     B3u        2       2       0       0       0       0
   -------------------------------------------------------
    Total      18      18       6       6       6       0
   -------------------------------------------------------

  ==> Integral Setup <==

  Using in-core PK algorithm.
   Calculation information:
      Number of atoms:                   2
      Number of AO shells:              10
      Number of primitives:             28
      Number of atomic orbitals:        18
      Number of basis functions:        18

      Integral cutoff                 1.00e-12
      Number of threads:                 1

  Performing in-core PK
  Using 29412 doubles for integral storage.
  We computed 1540 shell quartets total.
  Whereas there are 1540 unique shell quartets.

  ==> DiskJK: Disk-Based J/K Matrices <==

    J tasked:                  Yes
    K tasked:                  Yes
    wK tasked:                  No
    Memory [MiB]:              375
    Schwarz Cutoff:          1E-12

    OpenMP threads:              1

  Minimum eigenvalue in the overlap matrix is 8.1654782430E-03.
  Using Symmetric Orthogonalization.

  SCF Guess: Superposition of Atomic Densities via on-the-fly atomic UHF.

  ==> Iterations <==

                        Total Energy        Delta E     RMS |[F,P]|

   @ROHF iter SAD:   -74.45836509848716   -7.44584e+01   0.00000e+00 
   @ROHF iter   1:   -75.32939636648349   -8.71031e-01   1.04491e-02 DIIS
   @ROHF iter   2:   -75.34597940819388   -1.65830e-02   3.95161e-03 DIIS
   @ROHF iter   3:   -75.34884785923137   -2.86845e-03   8.05455e-04 DIIS
   @ROHF iter   4:   -75.34896369452103   -1.15835e-04   1.00186e-04 DIIS
   @ROHF iter   5:   -75.34896496562527   -1.27110e-06   1.14093e-05 DIIS
   @ROHF iter   6:   -75.34896498309303   -1.74678e-08   6.85408e-07 DIIS
   @ROHF iter   7:   -75.34896498316220   -6.91784e-11   1.29246e-07 DIIS
  Energy and wave function converged.


  ==> Post-Iterations <==

    Orbital Energies [Eh]
    ---------------------

    Doubly Occupied:                                                      

       1Ag   -11.374749     1B1u  -11.372901     2Ag    -1.067339  
       2B1u   -0.515173     1B2u   -0.445729     1B3u   -0.445729  

    Singly Occupied:                                                      

    

    Virtual:                                                              

       3Ag    -0.100631     1B2g    0.159461     1B3g    0.159461  
       3B1u    0.469746     4Ag     0.669083     2B3u    0.721913  
       2B2u    0.721913     5Ag     0.774793     2B2g    0.841965  
       2B3g    0.841965     4B1u    0.964988     5B1u    1.329300  

    Final Occupation by Irrep:
             Ag   B1g   B2g   B3g    Au   B1u   B2u   B3u 
    DOCC [     2,    0,    0,    0,    0,    2,    1,    1 ]
    SOCC [     0,    0,    0,    0,    0,    0,    0,    0 ]

  @ROHF Final Energy:   -75.34896498316220

   => Energetics <=

    Nuclear Repulsion Energy =             14.9681233129729030
    One-Electron Energy =                -130.1909365116238746
    Two-Electron Energy =                  39.8738482154887635
    Total Energy =                        -75.3489649831622046

Computation Completed


Properties will be evaluated at   0.000000,   0.000000,   0.000000 [a0]

Properties computed using the SCF density matrix

  Nuclear Dipole Moment: [e a0]
     X:     0.0000      Y:     0.0000      Z:     0.0000

  Electronic Dipole Moment: [e a0]
     X:     0.0000      Y:     0.0000      Z:     0.0000

  Dipole Moment: [e a0]
     X:     0.0000      Y:     0.0000      Z:     0.0000     Total:     0.0000

  Dipole Moment: [D]
     X:     0.0000      Y:     0.0000      Z:     0.0000     Total:     0.0000


*** tstop() called on CHE-FEVANGE-01I (2) at Wed Jul 31 16:17:26 2019
Module time:
	user time   =       0.28 seconds =       0.00 minutes
	system time =       0.02 seconds =       0.00 minutes
	total time  =          0 seconds =       0.00 minutes
Total time:
	user time   =       0.28 seconds =       0.00 minutes
	system time =       0.02 seconds =       0.00 minutes
	total time  =          0 seconds =       0.00 minutes
    SCF energy........................................................PASSED
   => Loading Basis Set <=

    Name: STO-3G
    Role: ORBITAL
    Keyword: MINAO_BASIS
    atoms 1-2 entry C          line    61 file /Users/fevange/Source/psi4/objdir-Debug/stage/share/psi4/basis/sto-3g.gbs 


  Forte
  ----------------------------------------------------------------------------
  A suite of quantum chemistry methods for strongly correlated electrons

    git branch: onedet - git commit: f4429acc

  Developed by:
    Francesco A. Evangelista, Chenyang Li, Kevin P. Hannon,
    Jeffrey B. Schriber, Tianyuan Zhang, Chenxi Cai,
    Nan He, Nicholas Stair, Shuhe Wang, Renke Huang
  ----------------------------------------------------------------------------

  Size of Determinant class: 32

  ==> MO Space Information <==

  Read options for space FROZEN_DOCC
  Read options for space RESTRICTED_DOCC
  Read options for space ACTIVE
  -------------------------------------------------------------------------
                       Ag   B1g   B2g   B3g    Au   B1u   B2u   B3u   Sum
  -------------------------------------------------------------------------
    FROZEN_DOCC         0     0     0     0     0     0     0     0     0
    RESTRICTED_DOCC     0     0     0     0     0     0     0     0     0
    ACTIVE              3     0     1     1     0     3     2     2    12
    RESTRICTED_UOCC     2     0     1     1     0     2     0     0     6
    FROZEN_UOCC         0     0     0     0     0     0     0     0     0
    Total               5     0     2     2     0     5     2     2    18
  -------------------------------------------------------------------------

  ==> Integral Transformation <==

  Number of molecular orbitals:                    18
  Number of correlated molecular orbitals:         18
  Number of frozen occupied orbitals:               0
  Number of frozen unoccupied orbitals:             0
  Two-electron integral type:              Conventional


  Overall Conventional Integrals timings

	Presorting SO-basis two-electron integrals.
	Sorting File: SO Ints (nn|nn) nbuckets = 1
	Transforming the one-electron integrals and constructing Fock matrices
	Starting first half-transformation.
	Sorting half-transformed integrals.
	First half integral transformation complete.
	Starting second half-transformation.
	Two-electron integral transformation complete.

  Integral transformation done. 0.01458639 s
  Reading the two-electron integrals from disk
  Size of two-electron integrals:   0.002346 GB
  Timing for freezing core and virtual orbitals:              0.000 s.
  Conventional integrals take 0.07385911 s

  ==> Summary of Active Space Solver Input <==

    Irrep.  Multi.  Nstates
    -------------------------
      Ag       1        2
    -------------------------
    Total number of states: 2
    -------------------------

  Number of active alpha electrons: 6
  Number of active beta electrons: 6
  Maximum reference space size: 1000
  |220002202020>

-------------------------------------------------------------------------------
               Selected Configuration Interaction Excited States
  written by Jeffrey B. Schriber, Tianyuan Zhang and Francesco A. Evangelista
-------------------------------------------------------------------------------

  ==> Reference Information <==

  ==> Calculation Information <==

  -----------------------------------------------------------------
    Multiplicity                             1    
    Symmetry                                 0    
    Number of roots                          2    
    Ms                                       0
    Excited Algorithm                        AVERAGE
  -----------------------------------------------------------------
  Using 1 threads
  Computing wavefunction for root 0

        ---------------------------------------------------------------
                                     ASCI
          written by Jeffrey B. Schriber and Francesco A. Evangelista
        ---------------------------------------------------------------

  ==> Reference Information <==

  There are 0 frozen orbitals.
  There are 12 active orbitals.

  ==> Calculation Information <==

  -----------------------------------------------------------------
    Multiplicity                             1    
    Symmetry                                 0    
    Number of roots                          2    
    CDet                                     50   
    TDet                                     334  
    Convergence threshold                    1.00e-05
    Ms                                       0
    Diagonalization algorithm                SOLVER
  -----------------------------------------------------------------
  Using 1 threads
  Number of active alpha electrons: 6
  Number of active beta electrons: 6
  Maximum reference space size: 1000
  |220002202020>

  ==> Cycle 0 <==

  Initial P space dimension: 1

  ==> Computing Coupling Lists <==
  --------------------------------
        α          0.000026 s
        β          0.000011 s
        αα         0.000032 s
        ββ         0.000022 s
        αβ         0.000055 s
  --------------------------------
  Time spent diagonalizing H:   0.000076 s

    P-space  CI Energy Root   0        = -75.348964983165 Eh =   0.0000 eV

  Time spent forming F space:             0.000192
  Time spent merging thread F spaces:             0.000085
  psi::Dimension of the Ref + SD space: 252 determinants
  Time spent building the external space (default): 0.000325 s

  Time spent building sorting list: 0.001225
  Time spent sorting: 0.000057
  Time spent selecting: 0.000054
  psi::Dimension of the P + Q space: 253 determinants
  Time spent screening the model space: 0.001366 s

  ==> Computing Coupling Lists <==
  --------------------------------
        α          0.001720 s
        β          0.001720 s
        αα         0.003731 s
        ββ         0.004231 s
        αβ         0.009382 s
  --------------------------------

  Davidson-Liu solver algorithm
  Using SPARSE sigma builder
  Initial guess space is incomplete!
  Trying to add 4 determinant(s).  4 determinant(s) added.
  Initial guess found 48 solutions with 2S+1 = 1 *
  Initial guess found 43 solutions with 2S+1 = 3  
  Initial guess found 13 solutions with 2S+1 = 5  
  Adding guess 0 (multiplicity = 1.000000)
  Adding guess 1 (multiplicity = 1.000000)

  ==> Diagonalizing Hamiltonian <==

  ----------------------------------------
    Iter.      Avg. Energy       Delta_E
  ----------------------------------------
      1      -90.486833474170  -9.049e+01
      2      -90.487682661511  -8.492e-04
      3      -90.487688389617  -5.728e-06
      4      -90.487689242208  -8.526e-07
      5      -90.487689497447  -2.552e-07
      6      -90.487689517823  -2.038e-08
      7      -90.487689520634  -2.811e-09
      8      -90.487689521186  -5.521e-10
      9      -90.487689521341  -1.557e-10
     10      -90.487689521363  -2.203e-11
  ----------------------------------------
  The Davidson-Liu algorithm converged in 11 iterations.
  Davidson-Liu procedure took  0.023978 s
  Total time spent diagonalizing H:   0.024751 s

    PQ-space CI Energy Root   0        = -75.519566208390 Eh =   0.0000 eV


  Most important contributions to root 0:
    0   0.903856 0.816956561           2 |220002202020>
    1  -0.270472 0.073155200           3 |222002002020>
    2  -0.099526 0.009905401           8 |220022200020>
    3  -0.099526 0.009905401           9 |220202202000>
    4  -0.084452 0.007132067           7 |22+-02-020+0>
    5  -0.084452 0.007132067           5 |22-+02+020-0>
    6   0.084452 0.007132067           6 |22+0-2-0+020>
    7   0.084452 0.007132067           4 |22-0+2+0-020>
    8   0.079149 0.006264565          18 |22+0-2+0-020>
    9   0.079149 0.006264565          19 |22-0+2-0+020>

  Spin state for root 0: S^2 = 0.000000, S = 0.000, singlet 


  Most important contributions to root 1:
    0   0.903856 0.816956561           1 |222002202000>
    1  -0.270472 0.073155200           2 |220002202020>
    2  -0.099526 0.009905401           7 |22+-02-020+0>
    3  -0.099526 0.009905401           8 |220022200020>
    4  -0.084452 0.007132067           6 |22+0-2-0+020>
    5  -0.084452 0.007132067           4 |22-0+2+0-020>
    6   0.084452 0.007132067           5 |22-+02+020-0>
    7   0.084452 0.007132067           3 |222002002020>
    8   0.079149 0.006264565          17 |220++220-0-0>
    9   0.079149 0.006264565          18 |22+0-2+0-020>

  Spin state for root 1: S^2 = 0.131494, S = 0.149, singlet 


  ==> Cycle 1 <==

  Initial P space dimension: 50

  ==> Computing Coupling Lists <==
  --------------------------------
        α          0.000366 s
        β          0.000366 s
        αα         0.000795 s
        ββ         0.000806 s
        αβ         0.002186 s
  --------------------------------
  Time spent diagonalizing H:   0.001834 s

    P-space  CI Energy Root   0        = -75.515653030810 Eh =   0.0000 eV
    P-space  CI Energy Root   1        = -75.382232857296 Eh =   3.6305 eV

  Time spent forming F space:             0.006310
  Time spent merging thread F spaces:             0.002037
  psi::Dimension of the Ref + SD space: 6046 determinants
  Time spent building the external space (default): 0.008887 s

  Time spent building sorting list: 0.030844
  Time spent sorting: 0.002006
  Time spent selecting: 0.000074
  psi::Dimension of the P + Q space: 334 determinants
  Time spent screening the model space: 0.033146 s

  ==> Computing Coupling Lists <==
  --------------------------------
        α          0.002205 s
        β          0.002276 s
        αα         0.004857 s
        ββ         0.005715 s
        αβ         0.012857 s
  --------------------------------

  Davidson-Liu solver algorithm
  Using SPARSE sigma builder
  Initial guess space is incomplete!
  Trying to add 73 determinant(s).  11 determinant(s) added.
  Found a guess vector with spin not close to integer value (2.236068)
  Found a guess vector with spin not close to integer value (4.123106)
  Found a guess vector with spin not close to integer value (4.123106)
  Found a guess vector with spin not close to integer value (4.123106)
  Found a guess vector with spin not close to integer value (4.123106)
  Found a guess vector with spin not close to integer value (4.123106)
  Found a guess vector with spin not close to integer value (4.123106)
  Found a guess vector with spin not close to integer value (4.123106)
  Found a guess vector with spin not close to integer value (4.123106)
  Found a guess vector with spin not close to integer value (4.123106)
  Found a guess vector with spin not close to integer value (4.582576)
  Found a guess vector with spin not close to integer value (4.582576)
  Found a guess vector with spin not close to integer value (4.582576)
  Initial guess found 79 solutions with 2S+1 = 1 *
  Initial guess found 95 solutions with 2S+1 = 3  
  Initial guess found 23 solutions with 2S+1 = 5  
  Initial guess found 1 solutions with 2S+1 = 7  
  Adding guess 0 (multiplicity = 1.000000)
  Adding guess 1 (multiplicity = 1.000000)
  Adding guess 2 (multiplicity = 1.000000)
  Adding guess 3 (multiplicity = 1.000000)

  ==> Diagonalizing Hamiltonian <==

  ----------------------------------------
    Iter.      Avg. Energy       Delta_E
  ----------------------------------------
      1      -90.449957659155  -9.045e+01
      2      -90.455964804669  -6.007e-03
      3      -90.456100956623  -1.362e-04
      4      -90.456114099908  -1.314e-05
      5      -90.456118253518  -4.154e-06
      6      -90.456118619320  -3.658e-07
      7      -90.456118685360  -6.604e-08
      8      -90.456118701150  -1.579e-08
      9      -90.456118706496  -5.345e-09
     10      -90.456118707572  -1.076e-09
     11      -90.456118707925  -3.539e-10
     12      -90.456118707987  -6.101e-11
     13      -90.456118708013  -2.667e-11
  ----------------------------------------
  The Davidson-Liu algorithm converged in 14 iterations.
  Davidson-Liu procedure took  0.093707 s
  Total time spent diagonalizing H:   0.095090 s

    PQ-space CI Energy Root   0        = -75.548838372178 Eh =   0.0000 eV
    PQ-space CI Energy Root   1        = -75.427152417902 Eh =   3.3112 eV


  Most important contributions to root 0:
    0  -0.853021 0.727644042           0 |220002202020>
    1   0.334309 0.111762613           1 |222002002020>
    2   0.116278 0.013520480           3 |220022200020>
    3   0.116205 0.013503587           2 |220202202000>
    4   0.094094 0.008853643           6 |22+-02-020+0>
    5   0.094094 0.008853643           7 |22-+02+020-0>
    6  -0.094014 0.008838546           4 |22-0+2+0-020>
    7  -0.094014 0.008838546           5 |22+0-2-0+020>
    8   0.093981 0.008832440           8 |22+-02+020-0>
    9   0.093981 0.008832440           9 |22-+02-020+0>

  Spin state for root 0: S^2 = 0.000431, S = 0.000, singlet 


  Most important contributions to root 1:
    0  -0.636094 0.404615613          23 |222002200020>
    1  -0.621700 0.386510735          22 |222002202000>
    2   0.332307 0.110428210           1 |222002002020>
    3   0.106476 0.011337238          80 |222202200000>
    4   0.104252 0.010868479          77 |222022200000>
    5   0.080462 0.006474159           0 |220002202020>
    6  -0.076780 0.005895146         207 |22+0+2-0-020>
    7  -0.076780 0.005895146         206 |22-0-2+0+020>
    8   0.075992 0.005774810         198 |22++02-020-0>
    9   0.075992 0.005774810         199 |22--02+020+0>

  Spin state for root 1: S^2 = 0.000308, S = 0.000, singlet 


  ==> Cycle 2 <==

  Initial P space dimension: 50

  ==> Computing Coupling Lists <==
  --------------------------------
        α          0.000376 s
        β          0.000373 s
        αα         0.000986 s
        ββ         0.000898 s
        αβ         0.002237 s
  --------------------------------
  Time spent diagonalizing H:   0.001786 s

    P-space  CI Energy Root   0        = -75.531994220420 Eh =   0.0000 eV
    P-space  CI Energy Root   1        = -75.393733637930 Eh =   3.7623 eV

  Time spent forming F space:             0.006357
  Time spent merging thread F spaces:             0.002875
  psi::Dimension of the Ref + SD space: 6478 determinants
  Time spent building the external space (default): 0.009990 s

  Time spent building sorting list: 0.034484
  Time spent sorting: 0.001929
  Time spent selecting: 0.000069
  psi::Dimension of the P + Q space: 334 determinants
  Time spent screening the model space: 0.036620 s

  ==> Computing Coupling Lists <==
  --------------------------------
        α          0.002228 s
        β          0.002244 s
        αα         0.004986 s
        ββ         0.005270 s
        αβ         0.013040 s
  --------------------------------

  Davidson-Liu solver algorithm
  Using SPARSE sigma builder
  Initial guess space is incomplete!
  Trying to add 80 determinant(s).  4 determinant(s) added.
  Found a guess vector with spin not close to integer value (3.605551)
  Found a guess vector with spin not close to integer value (3.605551)
  Found a guess vector with spin not close to integer value (4.123106)
  Found a guess vector with spin not close to integer value (4.123106)
  Found a guess vector with spin not close to integer value (4.123106)
  Found a guess vector with spin not close to integer value (4.123106)
  Found a guess vector with spin not close to integer value (4.123106)
  Found a guess vector with spin not close to integer value (4.123106)
  Found a guess vector with spin not close to integer value (4.123106)
  Found a guess vector with spin not close to integer value (4.123106)
  Found a guess vector with spin not close to integer value (4.123106)
  Found a guess vector with spin not close to integer value (4.123106)
  Found a guess vector with spin not close to integer value (4.123106)
  Initial guess found 78 solutions with 2S+1 = 1 *
  Initial guess found 91 solutions with 2S+1 = 3  
  Initial guess found 21 solutions with 2S+1 = 5  
  Initial guess found 1 solutions with 2S+1 = 7  
  Adding guess 0 (multiplicity = 1.000000)
  Adding guess 1 (multiplicity = 1.000000)
  Adding guess 2 (multiplicity = 1.000000)
  Adding guess 3 (multiplicity = 1.000000)

  ==> Diagonalizing Hamiltonian <==

  ----------------------------------------
    Iter.      Avg. Energy       Delta_E
  ----------------------------------------
      1      -90.448942911334  -9.045e+01
      2      -90.454595162092  -5.652e-03
      3      -90.454900874021  -3.057e-04
      4      -90.454945857839  -4.498e-05
      5      -90.454973996227  -2.814e-05
      6      -90.455001847840  -2.785e-05
      7      -90.455039452317  -3.760e-05
      8      -90.455070506644  -3.105e-05
      9      -90.455096588912  -2.608e-05
     10      -90.455103178607  -6.590e-06
     11      -90.455105661271  -2.483e-06
     12      -90.455106307695  -6.464e-07
     13      -90.455106781660  -4.740e-07
     14      -90.455106921314  -1.397e-07
     15      -90.455106933429  -1.212e-08
     16      -90.455106935238  -1.809e-09
     17      -90.455106935356  -1.175e-10
     18      -90.455106935752  -3.966e-10
     19      -90.455106944788  -9.036e-09
     20      -90.455106944903  -1.153e-10
     21      -90.455106961869  -1.697e-08
     22      -90.455106962039  -1.693e-10
     23      -90.455107060862  -9.882e-08
     24      -90.455107062282  -1.420e-09
     25      -90.455107064580  -2.299e-09
     26      -90.455107064591  -1.120e-11
  ----------------------------------------
  The Davidson-Liu algorithm converged in 27 iterations.
  Davidson-Liu procedure took  0.112622 s
  Total time spent diagonalizing H:   0.113909 s

    PQ-space CI Energy Root   0        = -75.550598415211 Eh =   0.0000 eV
    PQ-space CI Energy Root   1        = -75.423369088026 Eh =   3.4621 eV


  Most important contributions to root 0:
    0   0.849018 0.720830909           0 |220002202020>
    1  -0.336533 0.113254752           1 |222002002020>
    2  -0.116965 0.013680841           2 |220202202000>
    3  -0.116882 0.013661469           3 |220022200020>
    4  -0.094889 0.009003864           6 |22+-02-020+0>
    5  -0.094889 0.009003864           5 |22-+02+020-0>
    6   0.094876 0.009001386           7 |22-0+2+0-020>
    7   0.094876 0.009001386           4 |22+0-2-0+020>
    8  -0.094725 0.008972775          10 |22+-02+020-0>
    9  -0.094725 0.008972775          11 |22-+02-020+0>

  Spin state for root 0: S^2 = 0.000578, S = 0.001, singlet 


  Most important contributions to root 1:
    0   0.928938 0.862926680          20 |222002200020>
    1  -0.175231 0.030705870           1 |222002002020>
    2  -0.164118 0.026934586          21 |222002202000>
    3  -0.149442 0.022332849         110 |222202200000>
    4  -0.107332 0.011520224           7 |22-0+2+0-020>
    5  -0.107332 0.011520224           4 |22+0-2-0+020>
    6  -0.057906 0.003353092          13 |222022000020>
    7  -0.056595 0.003202987          50 |2-20-2+0+020>
    8  -0.056595 0.003202987          47 |2+20+2-0-020>
    9  -0.053194 0.002829589         119 |222202000020>

  Spin state for root 1: S^2 = 0.080610, S = 0.087, singlet 


  ==> Cycle 3 <==

  Initial P space dimension: 50

  ==> Computing Coupling Lists <==
  --------------------------------
        α          0.000367 s
        β          0.000367 s
        αα         0.000795 s
        ββ         0.000801 s
        αβ         0.002087 s
  --------------------------------
  Time spent diagonalizing H:   0.001856 s

    P-space  CI Energy Root   0        = -75.532628630960 Eh =   0.0000 eV
    P-space  CI Energy Root   1        = -75.393392035093 Eh =   3.7888 eV

  Time spent forming F space:             0.006325
  Time spent merging thread F spaces:             0.002252
  psi::Dimension of the Ref + SD space: 6555 determinants
  Time spent building the external space (default): 0.009150 s

  Time spent building sorting list: 0.035446
  Time spent sorting: 0.002393
  Time spent selecting: 0.000073
  psi::Dimension of the P + Q space: 334 determinants
  Time spent screening the model space: 0.038078 s

  ==> Computing Coupling Lists <==
  --------------------------------
        α          0.002318 s
        β          0.002311 s
        αα         0.005145 s
        ββ         0.005595 s
        αβ         0.013317 s
  --------------------------------

  Davidson-Liu solver algorithm
  Using SPARSE sigma builder
  Initial guess space is incomplete!
  Trying to add 92 determinant(s).  14 determinant(s) added.
  Found a guess vector with spin not close to integer value (3.605551)
  Found a guess vector with spin not close to integer value (3.605551)
  Found a guess vector with spin not close to integer value (4.123106)
  Found a guess vector with spin not close to integer value (4.123106)
  Found a guess vector with spin not close to integer value (4.123106)
  Found a guess vector with spin not close to integer value (4.123106)
  Found a guess vector with spin not close to integer value (4.123106)
  Found a guess vector with spin not close to integer value (4.123106)
  Found a guess vector with spin not close to integer value (4.123106)
  Found a guess vector with spin not close to integer value (4.123106)
  Found a guess vector with spin not close to integer value (4.123106)
  Found a guess vector with spin not close to integer value (4.123106)
  Initial guess found 81 solutions with 2S+1 = 1 *
  Initial guess found 97 solutions with 2S+1 = 3  
  Initial guess found 23 solutions with 2S+1 = 5  
  Initial guess found 1 solutions with 2S+1 = 7  
  Adding guess 0 (multiplicity = 1.000000)
  Adding guess 1 (multiplicity = 1.000000)
  Adding guess 2 (multiplicity = 1.000000)
  Adding guess 3 (multiplicity = 1.000000)

  ==> Diagonalizing Hamiltonian <==

  ----------------------------------------
    Iter.      Avg. Energy       Delta_E
  ----------------------------------------
      1      -90.449179456197  -9.045e+01
      2      -90.454358845553  -5.179e-03
      3      -90.454629604483  -2.708e-04
      4      -90.454662137131  -3.253e-05
      5      -90.454669332746  -7.196e-06
      6      -90.454669802142  -4.694e-07
      7      -90.454669911145  -1.090e-07
      8      -90.454669921420  -1.027e-08
      9      -90.454669940944  -1.952e-08
     10      -90.454669947326  -6.383e-09
     11      -90.454669989357  -4.203e-08
     12      -90.454669989422  -6.477e-11
     13      -90.454669992085  -2.663e-09
     14      -90.454669992088  -2.828e-12
  ----------------------------------------
  The Davidson-Liu algorithm converged in 15 iterations.
  Davidson-Liu procedure took  0.095066 s
  Total time spent diagonalizing H:   0.096469 s

    PQ-space CI Energy Root   0        = -75.550651284593 Eh =   0.0000 eV
    PQ-space CI Energy Root   1        = -75.422442073637 Eh =   3.4888 eV


  Most important contributions to root 0:
    0  -0.848852 0.720550564           0 |220002202020>
    1   0.336703 0.113369043           1 |222002002020>
    2   0.116979 0.013684048           3 |220022200020>
    3   0.116979 0.013684048           2 |220202202000>
    4  -0.094918 0.009009500          11 |22-0+2-0+020>
    5  -0.094918 0.009009500           8 |22+0-2+0-020>
    6   0.094918 0.009009500           9 |22-+02-020+0>
    7   0.094918 0.009009500          10 |22+-02+020-0>
    8   0.094742 0.008976083           5 |22+-02-020+0>
    9   0.094742 0.008976083           4 |22-+02+020-0>

  Spin state for root 0: S^2 = 0.000674, S = 0.001, singlet 


  Most important contributions to root 1:
    0  -0.683471 0.467132986          20 |222002200020>
    1   0.683471 0.467132986          21 |222002202000>
    2   0.105570 0.011144977          86 |222202200000>
    3  -0.105570 0.011144977          87 |222022200000>
    4   0.064332 0.004138639           5 |22+-02-020+0>
    5   0.064332 0.004138639           4 |22-+02+020-0>
    6   0.064332 0.004138639           6 |22+0-2-0+020>
    7   0.064332 0.004138639           7 |22-0+2+0-020>
    8   0.062141 0.003861496          12 |222022000020>
    9  -0.062141 0.003861496          13 |222202002000>

  Spin state for root 1: S^2 = 0.042689, S = 0.045, singlet 


  ==> Cycle 4 <==

  Initial P space dimension: 50

  ==> Computing Coupling Lists <==
  --------------------------------
        α          0.000392 s
        β          0.000371 s
        αα         0.000811 s
        ββ         0.000815 s
        αβ         0.002250 s
  --------------------------------
  Time spent diagonalizing H:   0.001881 s

    P-space  CI Energy Root   0        = -75.532628630960 Eh =   0.0000 eV
    P-space  CI Energy Root   1        = -75.393392035093 Eh =   3.7888 eV

  Time spent forming F space:             0.006560
  Time spent merging thread F spaces:             0.002067
  psi::Dimension of the Ref + SD space: 6555 determinants
  Time spent building the external space (default): 0.009192 s

  Time spent building sorting list: 0.035070
  Time spent sorting: 0.002035
  Time spent selecting: 0.000069
  psi::Dimension of the P + Q space: 334 determinants
  Time spent screening the model space: 0.037320 s

  ==> Computing Coupling Lists <==
  --------------------------------
        α          0.002300 s
        β          0.002335 s
        αα         0.004940 s
        ββ         0.004958 s
        αβ         0.012797 s
  --------------------------------

  Davidson-Liu solver algorithm
  Using SPARSE sigma builder
  Initial guess space is incomplete!
  Trying to add 92 determinant(s).  14 determinant(s) added.
  Found a guess vector with spin not close to integer value (3.605551)
  Found a guess vector with spin not close to integer value (3.605551)
  Found a guess vector with spin not close to integer value (4.123106)
  Found a guess vector with spin not close to integer value (4.123106)
  Found a guess vector with spin not close to integer value (4.123106)
  Found a guess vector with spin not close to integer value (4.123106)
  Found a guess vector with spin not close to integer value (4.123106)
  Found a guess vector with spin not close to integer value (4.123106)
  Found a guess vector with spin not close to integer value (4.123106)
  Found a guess vector with spin not close to integer value (4.123106)
  Found a guess vector with spin not close to integer value (4.123106)
  Found a guess vector with spin not close to integer value (4.123106)
  Initial guess found 81 solutions with 2S+1 = 1 *
  Initial guess found 97 solutions with 2S+1 = 3  
  Initial guess found 23 solutions with 2S+1 = 5  
  Initial guess found 1 solutions with 2S+1 = 7  
  Adding guess 0 (multiplicity = 1.000000)
  Adding guess 1 (multiplicity = 1.000000)
  Adding guess 2 (multiplicity = 1.000000)
  Adding guess 3 (multiplicity = 1.000000)

  ==> Diagonalizing Hamiltonian <==

  ----------------------------------------
    Iter.      Avg. Energy       Delta_E
  ----------------------------------------
      1      -90.449179456197  -9.045e+01
      2      -90.454358845553  -5.179e-03
      3      -90.454629604483  -2.708e-04
      4      -90.454662137131  -3.253e-05
      5      -90.454669332746  -7.196e-06
      6      -90.454669802142  -4.694e-07
      7      -90.454669911145  -1.090e-07
      8      -90.454669921420  -1.027e-08
      9      -90.454669940944  -1.952e-08
     10      -90.454669947326  -6.383e-09
     11      -90.454669989357  -4.203e-08
     12      -90.454669989422  -6.484e-11
     13      -90.454669992085  -2.663e-09
     14      -90.454669992088  -2.814e-12
  ----------------------------------------
  The Davidson-Liu algorithm converged in 15 iterations.
  Davidson-Liu procedure took  0.093862 s
  Total time spent diagonalizing H:   0.095214 s

    PQ-space CI Energy Root   0        = -75.550651284593 Eh =   0.0000 eV
    PQ-space CI Energy Root   1        = -75.422442073637 Eh =   3.4888 eV


  Most important contributions to root 0:
    0  -0.848852 0.720550564           0 |220002202020>
    1   0.336703 0.113369043           1 |222002002020>
    2   0.116979 0.013684048           2 |220022200020>
    3   0.116979 0.013684048           3 |220202202000>
    4  -0.094918 0.009009500           8 |22+0-2+0-020>
    5  -0.094918 0.009009500          11 |22-0+2-0+020>
    6   0.094918 0.009009500           9 |22-+02-020+0>
    7   0.094918 0.009009500          10 |22+-02+020-0>
    8   0.094742 0.008976083           7 |22+-02-020+0>
    9   0.094742 0.008976083           4 |22-+02+020-0>

  Spin state for root 0: S^2 = 0.000674, S = 0.001, singlet 


  Most important contributions to root 1:
    0   0.683471 0.467132987          21 |222002202000>
    1  -0.683471 0.467132986          20 |222002200020>
    2  -0.105570 0.011144977          86 |222022200000>
    3   0.105570 0.011144977          87 |222202200000>
    4   0.064332 0.004138639           7 |22+-02-020+0>
    5   0.064332 0.004138639           4 |22-+02+020-0>
    6   0.064332 0.004138639           6 |22-0+2+0-020>
    7   0.064332 0.004138639           5 |22+0-2-0+020>
    8   0.062141 0.003861496          12 |222022000020>
    9  -0.062141 0.003861496          13 |222202002000>

  Spin state for root 1: S^2 = 0.042689, S = 0.045, singlet 


  ==> Excited state solver summary <==

  Iterations required:                         4
  Dimension of optimized determinant space:    334

  * Selected-CI Energy Root   0        = -75.550651284593 Eh =   0.0000 eV
  * Selected-CI Energy Root   0 + EPT2 = -75.550651284593 Eh =   0.0000 eV
  * Selected-CI Energy Root   1        = -75.422442073637 Eh =   3.4888 eV
  * Selected-CI Energy Root   1 + EPT2 = -75.422442073637 Eh =   3.4888 eV

  ==> Wavefunction Information <==

  Most important contributions to root   0:
    0  -0.848852 0.720550564           0 |220002202020>
    1   0.336703 0.113369043           1 |222002002020>
    2   0.116979 0.013684048           2 |220022200020>
    3   0.116979 0.013684048           3 |220202202000>
    4  -0.094918 0.009009500           8 |22+0-2+0-020>
    5  -0.094918 0.009009500          11 |22-0+2-0+020>
    6   0.094918 0.009009500           9 |22-+02-020+0>
    7   0.094918 0.009009500          10 |22+-02+020-0>
    8   0.094742 0.008976083           7 |22+-02-020+0>
    9   0.094742 0.008976083           4 |22-+02+020-0>

  Spin state for root 0: S^2 = 0.000674, S = 0.001, singlet

  Most important contributions to root   1:
    0   0.683471 0.467132987          21 |222002202000>
    1  -0.683471 0.467132986          20 |222002200020>
    2  -0.105570 0.011144977          86 |222022200000>
    3   0.105570 0.011144977          87 |222202200000>
    4   0.064332 0.004138639           7 |22+-02-020+0>
    5   0.064332 0.004138639           4 |22-+02+020-0>
    6   0.064332 0.004138639           6 |22-0+2+0-020>
    7   0.064332 0.004138639           5 |22+0-2-0+020>
    8   0.062141 0.003861496          12 |222022000020>
    9  -0.062141 0.003861496          13 |222202002000>

  Spin state for root 1: S^2 = 0.042689, S = 0.045, singlet

  Saving information for root: 0

  ==> Energy Summary <==

    Multi.  Irrep.  No.               Energy
    -----------------------------------------
       1      Ag     0       -75.550651284593
       1      Ag     1       -75.422442073637
    -----------------------------------------    ASCI ENERGY.......................................................PASSED

    Psi4 stopped on: Wednesday, 31 July 2019 04:17PM
    Psi4 wall time for execution: 0:00:01.25

*** Psi4 exiting successfully. Buy a developer a beer!
